LAMMPS data file via write_data, version 29 Oct 2020, timestep = 30000000

13200 atoms
33 atom types
12400 bonds
28 bond types
14200 angles
25 angle types
17600 dihedrals
28 dihedral types

4.521525160152246 50.478474839877386 xlo xhi
4.521525160152246 50.478474839877386 ylo yhi
4.521525160152246 50.478474839877386 zlo zhi

Masses

1 13.607
2 11.611
3 1.008
4 11.611
5 11.611
6 1.008
7 15.599
8 1.008
9 35.05300000000003
10 11.611
11 11.611
12 11.611
13 15.599
14 15.599
15 15.599
16 1.008
17 1.008
18 1.008
19 1.008
20 1.008
21 1.008
22 0.4000000000000006
23 0.4
24 0.4
25 0.4
26 0.4
27 0.3999999999999965
28 0.4
29 0.4
30 0.4
31 0.4
32 0.4
33 0.4

Bond Coeffs # harmonic

1 382.003 1.448
2 339.986 1.09
3 267.925 1.529
4 320.005 1.41
5 553 0.945
6 267.997 1.529
7 340.01 1.09
8 340.01 1.09
9 340.01 1.09
10 316.993 1.522
11 320.005 1.41
12 340.01 1.09
13 570.005 1.229
14 450 1.364
15 553.011 0.945
16 553.011 0.945
17 500 0
18 500 0
19 500 0
20 500 0
21 500 0
22 500 0
23 500 0
24 500 0
25 500 0
26 500 0
27 500 0
28 500 0

Angle Coeffs # harmonic

1 51.8045 107.2
2 35.0024 109.5
3 32.9947 107.8
4 56.2022 109.5
5 37.5 110.7
6 50 109.5
7 35.0024 109.5
8 54.9952 108.5
9 37.5 110.7
10 37.5 110.7
11 37.5 110.7
12 33.0067 107.8
13 33.0067 107.8
14 33.0067 107.8
15 63.0019 111.1
16 50 109.5
17 37.5 110.7
18 51.6491 110.5
19 34.9904 109.5
20 34.9904 109.5
21 79.9952 120.4
22 70.0048 108
23 79.9952 121
24 34.9904 113
25 54.9952 108.5

Dihedral Coeffs # opls

1 0 0 0.55999 0
2 0.415989 -0.128011 0.695005 0
3 -1.013 -0.709011 0.472992 0
4 -10.5286 -1.29897 0 0
5 0 0 0.3 0
6 0 0 0.467997 0
7 -0.355999 -0.173996 0.491993 0
8 0 0 0.45 0
9 0 0 -0.1 0
10 0 0 0.467997 0
11 0 0 0.3 0
12 0 0 -0.1 0
13 0 0 0.467997 0
14 0 0 0.3 0
15 0 0 -0.1 0
16 0 0 0.467997 0
17 0 0 0.3 0
18 0 0 0 0
19 1 0.546009 0.45 0
20 0 0 0 0
21 9.50801 0 0 0
22 0 0 0 0
23 0 0 0 0
24 -0.355999 -0.173996 0.491993 0
25 -0.355999 -0.173996 0.491993 0
26 0 0 0.352008 0
27 1.5 5.5 0 0
28 0 5.5 0 0

Atoms # full

9947 107 24 -2.2372 8.012758003999519 12.095021129661546 11.675278874119963 1 0 1
2229 107 2 2.2749 9.152130869092758 9.984097856924395 10.898512024512723 1 0 1
9945 107 23 -2.4449 9.174917839625587 10.013272131882287 10.927281175851187 1 0 1
2230 107 2 2.2749 10.166485558797325 11.646323773219173 12.293323642579594 1 0 1
9946 107 23 -2.4449 10.181033019164385 11.642102032361107 12.272071545737981 1 0 1
2227 107 1 2.0273 8.864309327724563 11.004561421948788 12.038968325889067 1 0 1
9943 107 22 -1.9073 8.868109373956884 11.011465998837423 12.059681711741488 1 0 1
9944 107 23 -2.4449 8.408212285583412 10.170450812381883 13.212197930878808 1 0 1
2228 107 2 2.2749 8.402107684177862 10.189014292374349 13.211269552048291 1 0 1
2234 107 3 0.13 7.363015004343781 9.913637357581997 13.030925861624558 1 0 1
3563 170 4 2.0672 6.388007653315349 7.5471675999625445 5.452753509695576 0 1 0
10388 170 24 -2.2372 6.415204675144407 7.529563459990869 5.459737052461136 0 1 0
3550 170 1 2.0273 6.594931751479854 7.1868982488109525 6.877538247822335 0 1 0
10384 170 22 -1.9073 6.623779727069155 7.172170778823189 6.868143653168206 0 1 0
2235 107 3 0.13 8.44188907422069 10.781771609894538 14.12513983805707 1 0 1
2236 107 3 0.13 9.035157999926827 9.304182165254913 13.277627821864133 1 0 1
2239 107 3 0.13 10.191432066846467 12.51700641359663 12.948603850311782 1 0 1
2240 107 4 2.0672 7.991924118870149 12.105897103845892 11.654023411026103 1 0 1
2238 107 3 0.13 10.865242512198423 10.911138991504343 12.692487725683662 1 0 1
2232 107 3 0.13 9.31644743147638 10.593608084618912 10.009927662429835 1 0 1
2231 107 3 0.13 9.97971636538815 9.31496125299505 11.133987559565416 1 0 1
2241 107 3 0.13 8.483567819978731 12.531849472765847 10.779416340789941 1 0 1
2237 107 3 0.13 10.63904269465013 11.938771194000822 11.35564115104514 1 0 1
2243 107 3 0.13 7.030516482758646 11.736588306284021 11.297128223644291 1 0 1
4400 400 9 2.6401 10.126280127758113 9.9297658938956 7.28073782834761 0 0 1
10800 400 27 -3.6401 10.133137802715282 9.955582681713786 7.272396155098356 0 0 1
9948 107 25 -2.3074 7.617899945860534 13.301320728410039 12.519768667803596 1 0 1
2242 107 5 2.5824 7.623458054440299 13.336235911274029 12.497803395007358 1 0 1
9949 107 26 -2.1019 7.592771860045278 13.01551364983112 13.880489275107353 1 0 1
2244 107 6 0.06 6.619058640636649 13.725187817000192 12.330543788295408 1 0 1
2246 107 7 1.4189 7.563690950249543 13.066036616239266 13.863944831654706 1 0 1
2247 107 8 0.418 7.107127608514753 13.75096689578479 14.328100565544192 1 0 1
2245 107 6 0.06 8.445124169370875 14.020829127920708 12.28733509326769 1 0 1
10371 168 23 -2.4449 7.868349744258261 12.956292814362145 7.336998421409775 0 0 0
3509 168 2 2.2749 7.899915934926335 12.954945021526536 7.340494854262793 0 0 0
2233 107 3 0.13 8.37009693301848 9.247970073647458 10.712483952875116 1 0 1
3562 170 3 0.13 8.78767952202401 7.212532914556154 6.9851335448329515 0 1 0
4329 329 9 2.6401 5.683519317938111 15.335264574954518 14.894036286906921 0 0 0
10729 329 27 -3.6401 5.704417976795997 15.334408491205208 14.875115550700121 0 0 0
3900 186 3 0.13 11.199274065142458 12.36657517686392 8.567926004832183 0 0 1
3570 170 8 0.418 8.990940498733256 9.035648156518015 5.524273414638507 0 1 0
10387 170 23 -2.4449 7.932347285859682 6.548012341599627 7.161165822930098 0 1 0
3553 170 2 2.2749 7.924580750692733 6.565409684165379 7.141315235456588 0 1 0
3508 168 1 2.0273 6.433134344287877 12.949109099167194 7.244463998631252 0 0 0
10370 168 22 -1.9073 6.414543046437782 12.961319525595695 7.253854922045666 0 0 0
3514 168 3 0.13 6.345391401809301 11.70912965329035 9.032937636113566 0 0 0
3511 168 2 2.2749 6.0798347119698075 11.749391983866124 6.502850970508093 0 0 0
2693 129 3 0.13 12.04357705782991 7.990796267790617 7.575819311370827 0 0 1
10373 168 23 -2.4449 6.125879294318486 11.772003083630885 6.529459687455722 0 0 0
4248 248 9 2.6401 5.9202359804247475 9.65980471842708 10.261207454221655 0 1 1
3561 170 3 0.13 8.037895751942841 6.258044963007983 8.180921775309779 0 1 0
3560 170 3 0.13 8.051503037989434 5.622045422948212 6.610254031940442 0 1 0
10648 248 27 -3.6401 5.922707681113275 9.64464700260626 10.26260210470974 0 1 1
10372 168 23 -2.4449 6.091351521813429 12.68160092787247 8.640180195265518 0 0 0
3510 168 2 2.2749 6.058940037586163 12.681571761549748 8.632456749398978 0 0 0
3520 168 3 0.13 6.612251872525947 10.885687278740477 6.901138430739693 0 0 0
3564 170 3 0.13 6.434289883455554 6.664780518626014 4.814536380691472 0 1 0
3515 168 3 0.13 8.354376095997157 11.999050898014973 7.600909545171687 0 0 0
3517 168 3 0.13 8.260654526280518 13.163257644497174 6.333243736980507 0 0 0
2695 129 3 0.13 11.652797762799798 7.074810491889405 9.05438471900174 0 0 1
10602 202 27 -3.6401 8.681894236251665 15.283951340582494 10.161123784672553 1 0 0
3513 168 3 0.13 6.464831279914923 13.485611404705883 9.246360841806052 0 0 0
3894 186 3 0.13 10.888271434942858 14.398882994418376 9.829498992702458 0 0 1
4202 202 9 2.6401 8.658584427610759 15.281429566946118 10.16393188280122 1 0 0
3516 168 3 0.13 8.318712200258194 13.661492011772838 8.05708881484204 0 0 0
3559 170 3 0.13 7.375639336405518 9.004992030730845 7.643777940334505 0 1 0
3899 186 4 2.0672 11.89152398636336 12.830914404126265 7.865601077825087 0 0 1
10500 186 24 -2.2372 11.917761321676933 12.840942899160328 7.883721220784477 0 0 1
10497 186 23 -2.4449 11.486187302402284 14.8452479302084 9.002645015134295 0 0 1
3887 186 2 2.2749 11.430462402957744 14.873910808050077 9.011904134199016 0 0 1
8856 772 13 1.4661 9.072016534767176 6.9870744432738014 12.764832432663551 3 2 -1
3555 170 3 0.13 5.670969899854423 5.845958293457486 8.123737081560403 0 1 0
3134 150 3 0.13 7.053631257680838 10.958158427829988 15.829232796592862 0 0 0
13030 772 31 -1.8561 9.056172920360787 7.0120986612045355 12.777201300378977 3 2 -1
10385 170 23 -2.4449 6.572646891599187 8.242350426581421 7.736713736002919 0 1 0
9104 792 21 0.24 11.457012842225307 7.855250165344994 12.269436290800098 1 1 -1
3902 186 3 0.13 11.37445043560636 13.095330014298025 6.943216886364954 0 0 1
3557 170 3 0.13 6.569816336396839 7.951838729338753 8.82650873730552 0 1 0
10101 129 24 -2.2372 11.728019203224726 5.575679367625553 6.912538626271304 0 0 1
2702 129 4 2.0672 11.705040522973821 5.558836475530734 6.910391930112589 0 0 1
13031 772 32 -2.1019 10.021709411658874 6.490010171651945 10.753815437588484 3 2 -1
3551 170 2 2.2749 6.573936351434425 8.280573412707426 7.7872733535343945 0 1 0
2703 129 3 0.13 10.949977231559103 5.241203635680093 7.629468452657002 0 0 1
3569 170 7 1.4189 8.629363804287353 8.432433931501837 4.89306637571272 0 1 0
1189 57 3 0.13 5.2453969656741 6.651490361179398 15.097374553066132 0 1 1
3518 168 3 0.13 6.206471598314833 11.818594646018653 5.422457293422546 0 0 0
2705 129 3 0.13 11.343873399446501 6.359042319044931 6.264394467716744 0 0 1
1192 57 5 2.5824 5.619051948582152 7.268535575191966 12.469548487949904 0 1 1
8863 772 20 0.26 10.410315808280565 5.784874991267254 10.184109387479928 3 2 -1
3552 170 2 2.2749 5.504851187437697 6.287167933665453 7.140969445157622 0 1 0
8864 772 21 0.24 9.83466769671342 5.137487582147388 14.128400349824485 3 2 -1
10386 170 23 -2.4449 5.5291820898277555 6.31842082047014 7.1122459408660585 0 1 0
3895 186 3 0.13 10.620805230936403 14.981511945955274 8.29013691721498 0 0 1
9598 57 25 -2.3074 5.591423378003935 7.284648035642909 12.514216348835543 0 1 1
3524 168 3 0.13 6.483775811753846 14.34161232198566 5.70071523641309 0 0 0
8857 772 14 1.7919 10.02834422211273 6.46081264116659 10.722824309817453 3 2 -1
12302 651 29 -2.0081 11.535223366269259 14.939828966394881 15.214571395220903 0 2 2
7402 651 11 2.1281 11.522758569338928 14.924362484355417 15.215612992406802 0 2 2
1195 57 6 0.06 6.347058929410339 7.320745225267013 13.279105862688077 0 1 1
7410 651 19 0.12 11.01793868576816 15.773934394446183 15.675481638973062 0 2 2
3554 170 3 0.13 4.530956465915082 6.700111140876384 6.878130869002975 0 1 0
1187 57 3 0.13 5.8267236566028355 5.097402897389939 15.151522967265905 0 1 1
3521 168 4 2.0672 5.8468237427961505 14.222813944622647 6.577221738151701 0 0 0
13029 772 30 -1.7492 9.600692488149665 6.180909969397253 12.055942622438602 3 2 -1
8855 772 12 2.1192 9.62297303784641 6.163515132422266 12.018931144949278 3 2 -1
12306 651 33 -2.1019 11.310249609980426 15.032580898893272 13.78990147351539 0 2 2
7406 651 15 1.6619 11.338508433367998 15.043086357277488 13.800763726984883 0 2 2
1180 57 2 2.2749 4.885669975840934 5.626917155964774 15.002779345261173 0 1 1
3893 186 3 0.13 11.767790535096724 15.850854021777746 9.35816354055098 0 0 1
3522 168 3 0.13 6.097109911265823 15.01271604256327 7.285399960611457 0 0 0
2700 129 3 0.13 12.143180510946557 4.791489227906991 9.190329314928293 0 0 1
3566 170 3 0.13 5.355681301379536 7.879501891779245 5.343513067094153 0 1 0
3558 170 3 0.13 5.647303344589364 8.847611981588397 7.698393059226387 0 1 0
10374 168 24 -2.2372 5.846221525376896 14.200660648140815 6.574569763517055 0 0 0
1908 91 6 0.06 4.813758096144096 11.251993703570076 13.087550284522733 1 0 0
9596 57 23 -2.4449 4.911387132745503 5.625398480049806 14.991691257695209 0 1 1
4083 195 3 0.13 10.28984528465997 12.041560260631591 4.916983834042364 0 1 1
1194 57 6 0.06 6.000015768488503 7.493943992810555 11.473486480488974 0 1 1
7408 651 17 0.08 10.38128579864179 13.108670061431367 15.334535339593252 0 2 2
1191 57 3 0.13 5.791485542865205 5.179789108178002 12.374159052591526 0 1 1
8858 772 15 1.6619 10.528765141416082 4.777268417698985 13.597846901417086 3 2 -1
3519 168 3 0.13 4.993534947857778 11.696737874285622 6.575341899574232 0 0 0
3807 182 3 0.13 4.74108132547028 15.122445600698947 10.178505304317673 0 -1 2
10740 340 27 -3.6401 10.435744624630605 14.498135814070153 5.1025140579909 1 0 1
1197 57 8 0.418 4.89823805877989 8.806477711390539 11.902737182972794 0 1 1
9095 792 12 2.1192 12.051792764112022 8.345750832689294 14.62948178407161 1 1 -1
4080 195 3 0.13 11.514496174497205 9.905496692847489 4.84037571479758 0 1 1
10389 170 25 -2.3074 7.2938870576510215 8.531017354845833 4.7610070159993105 0 1 0
3565 170 5 2.5824 7.239753242212354 8.57497066281417 4.740074681978494 0 1 0
9096 792 13 1.4661 11.407240789693406 9.357849436015103 14.85091579752272 1 1 -1
9597 57 24 -2.2372 4.9642138751103895 5.867263950462016 12.59431319732728 0 1 1
13149 792 30 -1.7492 12.056675360823537 8.373748964131027 14.607748325317788 1 1 -1
3556 170 3 0.13 5.426367867963444 5.412466062146195 6.495364484020821 0 1 0
1190 57 4 2.0672 4.957325792314183 5.8503340349673865 12.580635466263775 0 1 1
9599 57 26 -2.1019 4.697477491695184 8.35401496550266 12.752350538004132 0 1 1
3567 170 6 0.06 7.103076728588693 9.518907728344516 5.267713556566107 0 1 0
10390 170 26 -2.1019 8.651841625592349 8.416172826823708 4.86912043120772 0 1 0
13028 772 29 -2.0081 10.001911274946027 4.7772200908127065 12.34725227548329 3 2 -1
1196 57 7 1.4189 4.740251024728749 8.344140682684765 12.711623779666809 0 1 1
13150 792 31 -1.8561 11.400240836647784 9.365599785927417 14.855374331737014 1 1 -1
4340 340 9 2.6401 10.434025252217857 14.497181861369324 5.123694323061179 1 0 1
7401 651 10 2.1449 11.280845998888193 13.542117497240119 15.771549901907328 0 2 2
13032 772 33 -2.1019 10.537568993993817 4.756129072038164 13.611799936588914 3 2 -1
12301 651 28 -2.4449 11.278645592784137 13.550481057388566 15.745533887677034 0 2 2
8854 772 11 2.1281 9.994954114906866 4.730544421405534 12.34011694534858 3 2 -1
3512 168 3 0.13 4.983661819026482 12.642008644791428 8.80648948286812 0 0 0
7407 651 16 0.13 12.129724049414998 12.884717537912318 15.583620525085774 0 2 2
2691 129 2 2.2749 12.42155615102204 7.27820736301055 8.308915870242219 0 0 1
10099 129 23 -2.4449 12.413531274031257 7.253099254523825 8.316018366439044 0 0 1
4218 218 9 2.6401 14.649399954626226 9.250446717250448 5.257216736305431 0 0 0
3886 186 1 2.0273 12.46029155811179 14.027585436397377 8.475831685219772 0 0 1
10496 186 22 -1.9073 12.483246348103357 14.015866010230406 8.467285552959009 0 0 1
3892 186 3 0.13 12.670974325918221 13.13292291040222 10.306125447811022 0 0 1
12269 645 32 -2.1019 18.430027295310072 5.016171215706945 12.384052058274508 4 2 -4
10618 218 27 -3.6401 14.67328209001646 9.291690295510922 5.285117450529603 0 0 0
2694 129 3 0.13 13.265518153908399 7.6845476570997615 8.866339608790291 0 0 1
12268 645 31 -1.8561 17.163149419157293 5.914525518385397 10.76908114662024 4 2 -4
3888 186 2 2.2749 13.333312510536665 13.694886725058698 9.647653939625807 0 0 1
10498 186 23 -2.4449 13.312284052269344 13.700527276407282 9.670276761550266 0 0 1
3890 186 3 0.13 13.72018012755499 14.500619236140524 10.27154034738309 0 0 1
12303 651 30 -1.7492 12.983567745325983 15.293924916119881 15.382755090026631 0 2 2
10097 129 22 -1.9073 12.818495843290535 5.958854344756327 7.730639745890192 0 0 1
2689 129 1 2.0273 12.823746218396526 5.969204687632778 7.725178919421557 0 0 1
3898 186 3 0.13 12.593901651222529 15.057487846302305 6.6968818582775524 0 0 1
2697 129 3 0.13 13.7368033246757 6.869060173092807 6.023183138813399 0 0 1
7335 645 16 0.13 17.25244194958129 4.931872053807431 14.796158721458726 4 2 -4
13152 792 33 -2.1019 12.293271041944504 8.307279347746798 12.1581631062422 1 1 -1
9098 792 15 1.6619 12.290594178828574 8.290923145790703 12.178133766545013 1 1 -1
9094 792 11 2.1281 12.969162463446624 8.270257380328863 13.405504608926567 1 1 -1
9099 792 16 0.13 13.595912338979842 10.459031000887622 13.532331768028032 1 1 -1
3903 186 6 0.06 12.266611346944572 11.002088826005428 6.565742400529924 0 0 1
13148 792 29 -2.0081 12.959592960745152 8.279294501143909 13.404005864899315 1 1 -1
9101 792 18 0.12 14.345904046969096 9.238034456898477 14.529370530889674 1 1 -1
7482 657 19 0.12 17.555313184770668 11.751242241668383 14.88933875480451 -2 0 -1
9093 792 10 2.1449 13.95886503336206 9.431243708880205 13.5288857008102 1 1 -1
7334 645 15 1.6619 15.020627582882257 5.603101962935611 12.377699426621506 4 2 -4
7483 657 20 0.26 14.452830521375697 13.256804626122543 15.682090470861564 -2 0 -1
7412 651 21 0.24 12.19673308950699 15.24459048556513 13.460371545722474 0 2 2
12270 645 33 -2.1019 14.98451442100254 5.598514210016134 12.394745244556706 4 2 -4
3904 186 6 0.06 12.987891863655582 10.861173756236472 8.171919424365868 0 0 1
3901 186 5 2.5824 12.703785001275413 11.565502743358282 7.390066529870771 0 0 1
10501 186 25 -2.3074 12.777177146154408 11.616837791994216 7.394892890525257 0 0 1
3891 186 3 0.13 14.172682310867794 13.0448087754199 9.400788782549569 0 0 1
7338 645 19 0.12 16.272028490142166 6.791711015242386 13.248227566719669 4 2 -4
12266 645 29 -2.0081 16.244915536922 5.728251328131776 12.989752066910464 4 2 -4
7330 645 11 2.1281 16.250499756891976 5.728779383361755 13.00778376586026 4 2 -4
7403 651 12 2.1192 12.977771912674031 15.315523745810781 15.422919890625689 0 2 2
7474 657 11 2.1281 17.37303329927471 11.913872716541306 15.951600568114458 -2 0 -1
7616 668 21 0.24 16.828787785261845 14.992864798129979 12.616640426421638 2 1 0
3896 186 3 0.13 14.106439699742669 14.360007264757934 7.096834107574006 0 0 1
10100 129 23 -2.4449 13.135475844482484 5.027914325774989 8.78280260795725 0 0 1
2692 129 2 2.2749 13.124970540028455 5.006117587930673 8.768309589269192 0 0 1
2701 129 3 0.13 13.933056305038335 5.407003458443993 9.380186693616338 0 0 1
12405 668 30 -1.7492 17.369095948700185 14.090384043334323 10.531372317357055 2 1 0
2698 129 3 0.13 14.417636670953511 5.38940543141301 6.562484349743864 0 0 1
7609 668 14 1.7919 18.233480753668502 13.998776159883734 9.411547851914715 2 1 0
7613 668 18 0.12 18.946134687067357 11.929099774777255 11.230338717514154 2 1 0
12407 668 32 -2.1019 18.194830975006695 13.998031367582916 9.416233723880191 2 1 0
13147 792 28 -2.4449 13.967871266578152 9.437590461715763 13.511877454336018 1 1 -1
2696 129 3 0.13 14.75954823995775 6.901194201757041 7.469068437216768 0 0 1
3889 186 2 2.2749 13.23234761282138 14.827729194824903 7.549917720542658 0 0 1
10499 186 23 -2.4449 13.23580179391025 14.8519855563937 7.567942623634085 0 0 1
9100 792 17 0.08 14.839016217033215 9.286723725760982 12.902359506216193 1 1 -1
5647 504 20 0.26 15.752763373942125 9.538399555882778 7.019876483146035 0 1 0
5641 504 14 1.7919 16.471547504333806 9.721154732805148 7.605497815323551 0 1 0
11423 504 32 -2.1019 16.510713015507783 9.72577160315961 7.6596902589392 0 1 0
11422 504 31 -1.8561 15.333606657470087 8.496752825140138 9.062459966241528 0 1 0
5640 504 13 1.4661 15.345232547332474 8.508427703452258 9.070762048487719 0 1 0
5644 504 17 0.08 19.481000730884908 8.772714611022284 9.211688058142867 0 1 0
5637 504 10 2.1449 18.45071027530038 8.477931201273146 9.01242238059828 0 1 0
11419 504 28 -2.4449 18.452807730789992 8.501291582707005 9.033281674118022 0 1 0
10502 186 26 -2.1019 14.04882903140632 12.007361631682146 6.949329974584574 0 0 1
3905 186 7 1.4189 13.991576073738937 11.944236350587973 6.957600670712307 0 0 1
3906 186 8 0.418 14.203873431582444 11.151256805296057 6.489498893887951 0 0 1
2690 129 2 2.2749 14.004351236112981 6.328285890862395 6.930960927180296 0 0 1
5639 504 12 2.1192 16.12240113196314 9.407415187058946 8.860848074032893 0 1 0
5638 504 11 2.1281 17.46131948017675 9.571470359433143 9.633845486738812 0 1 0
11420 504 29 -2.0081 17.451214028348026 9.585765585208234 9.65443587284285 0 1 0
11421 504 30 -1.7492 16.11623704479706 9.387803871463218 8.894541984159202 0 1 0
11424 504 33 -2.1019 17.376358420041566 9.375483461558767 11.0438693216697 0 1 0
5642 504 15 1.6619 17.34821888042706 9.372319478436713 11.011609958751785 0 1 0
5646 504 19 0.12 17.776057040098607 10.614259874428836 9.59346606812025 0 1 0
5648 504 21 0.24 16.592584649916468 8.80573588912256 11.043295941184875 0 1 0
4121 197 3 0.13 17.769383498673378 13.616211869243115 6.459570729318245 0 0 1
4134 197 6 0.06 15.802356232040939 14.37140640439401 5.779815094598662 0 0 1
10575 197 23 -2.4449 17.65125009193956 12.544803428743881 6.258029112156423 0 0 1
4119 197 2 2.2749 17.643708371524987 12.55232677582591 6.258435676366126 0 0 1
5643 504 16 0.13 18.29681682713596 7.459518182339435 9.369114137195098 0 1 0
5645 504 18 0.12 18.41867158796232 8.434799721600434 7.923759602325014 0 1 0
4123 197 3 0.13 16.801658766784904 12.080529666238265 6.76483200436009 0 0 1
10098 129 23 -2.4449 13.997216893728773 6.323766470030007 6.975171425656924 0 0 1
7611 668 16 0.13 17.76270211641023 11.723475119435463 12.521653167172209 2 1 0
12403 668 28 -2.4449 18.554236018996622 12.390291418038597 12.150324253260356 2 1 0
7605 668 10 2.1449 18.563917872096003 12.364347816406092 12.15367229590874 2 1 0
12406 668 31 -1.8561 16.304886956349073 14.70208854302471 10.42812854564075 2 1 0
7608 668 13 1.4661 16.324715165270757 14.687092434770898 10.427372882359371 2 1 0
7607 668 12 2.1192 17.397753177704217 14.084651216597186 10.515931027534696 2 1 0
7612 668 17 0.08 19.39874738683858 12.412045173428183 12.852877406469599 2 1 0
12404 668 29 -2.0081 18.094088459931847 13.82808530257154 11.872469349721905 2 1 0
7606 668 11 2.1281 18.110561966433462 13.809249941293587 11.88609775915199 2 1 0
7610 668 15 1.6619 17.20225514342221 14.173413359947737 12.903061899230924 2 1 0
12408 668 33 -2.1019 17.208440981572867 14.155176678836197 12.931934121128071 2 1 0
7614 668 19 0.12 18.893533341877763 14.566852585807561 11.919220081456821 2 1 0
7615 668 20 0.26 19.10038338890957 13.680745705290642 9.612438454491503 2 1 0
12267 645 30 -1.7492 17.27938513646861 5.588724936872675 11.915161719207806 4 2 -4
11212 469 31 -1.8561 18.44650027063369 7.3537252111444324 14.876839753099873 1 3 -2
5226 469 19 0.12 19.28300345366278 8.503598163312034 12.188239698653986 1 3 -2
5219 469 12 2.1192 19.366615335945298 7.5307902124243125 14.102400828281171 1 3 -2
11211 469 30 -1.7492 19.335753614260103 7.559898951967193 14.110215346218368 1 3 -2
7477 657 14 1.7919 15.142043463339117 12.71129363532008 15.335075486232984 -2 0 -1
5218 469 11 2.1281 19.528862399377534 8.772003607577217 13.215654559791252 1 3 -2
11210 469 29 -2.0081 19.52690992002308 8.774456126180542 13.238803978786637 1 3 -2
12341 657 32 -2.1019 15.158941517331987 12.685126364413962 15.3615437279207 -2 0 -1
5228 469 21 0.24 17.68307445438758 9.503724774636343 13.358546830260702 1 3 -2
5222 469 15 1.6619 18.537406436576877 9.639925851212483 13.738769777067844 1 3 -2
11214 469 33 -2.1019 18.54103525032295 9.676606034638422 13.7519008159019 1 3 -2
5220 469 13 1.4661 18.45403317640733 7.36349501771092 14.865704393296138 1 3 -2
7329 645 10 2.1449 16.311001993975438 4.833334753975728 14.255710478227487 4 2 -4
4935 445 16 0.13 19.676767732457655 5.4481059498233355 5.439258021661588 -2 0 -2
9102 792 19 0.12 13.37999817682676 7.263688228762408 13.483690546758002 1 1 -1
7332 645 13 1.4661 17.162326333016154 5.918587416624745 10.779149639648956 4 2 -4
7333 645 14 1.7919 18.468756849158016 5.001558355602892 12.384506127953854 4 2 -4
4122 197 3 0.13 18.62310668389189 12.175521323443046 6.55321075895977 0 0 1
7337 645 18 0.12 15.486890217484905 5.031921748503873 14.940903600870485 4 2 -4
12265 645 28 -2.4449 16.28134231652753 4.830927569017397 14.241277582467916 4 2 -4
7340 645 21 0.24 15.216947676103848 5.368997842353536 11.483461962928425 4 2 -4
4127 197 3 0.13 18.706307968904085 10.610403758167934 4.7984036930679705 0 0 1
4133 197 3 0.13 15.511249767781644 11.977840502856417 4.923187672623134 0 0 1
10578 197 25 -2.3074 15.771869935609494 14.09912062552284 4.741614527814692 0 0 1
12338 657 29 -2.0081 17.383366079373516 11.933564118896458 15.961995170700256 -2 0 -1
7339 645 20 0.26 19.178442755987923 4.969376725865053 11.761348697743685 4 2 -4
13151 792 32 -2.1019 12.285975105601104 7.378232109665584 15.550455632893183 1 1 -1
7404 651 13 1.4661 13.854314145761386 14.864845515203342 14.731529733494686 0 2 2
9097 792 14 1.7919 12.290257137693462 7.356389093575544 15.571542246167121 1 1 -1
7331 645 12 2.1192 17.31111902969013 5.579745294223122 11.927092943208043 4 2 -4
12304 651 31 -1.8561 13.86860784111088 14.860982293767444 14.7244052291525 0 2 2
3897 186 3 0.13 13.569724858611307 15.747557613444094 8.027617445190664 0 0 1
4117 197 1 2.0273 17.58837523899498 12.363915415189657 4.735154493121772 0 0 1
10573 197 22 -1.9073 17.56038347644211 12.342937495128643 4.744730403078404 0 0 1
12339 657 30 -1.7492 16.35361752478585 13.11481544698497 15.916773018275524 -2 0 -1
7475 657 12 2.1192 16.335338699339733 13.11245162714227 15.893956841391073 -2 0 -1
4132 197 5 2.5824 15.73395516493805 14.081577635167273 4.731281914560661 0 0 1
7480 657 17 0.08 16.663187648937978 9.895036853989083 16.007512625618748 -2 0 -1
11839 574 28 -2.4449 23.826644958462314 4.534940119444705 15.833622677006828 2 1 -5
7147 629 20 0.26 25.880611723420877 14.234340153305071 5.081114494043455 2 2 -1
12993 766 30 -1.7492 21.60600894945302 5.751205774087222 8.304651130269619 1 0 1
4899 442 16 0.13 25.24064886661081 9.088865796957732 8.55173389573549 0 1 -1
6404 567 21 0.24 24.606143726310755 10.161617765494295 15.278048971076636 0 1 -3
5227 469 20 0.26 20.307761717625453 6.098585438623149 14.836367801070075 1 3 -2
4379 379 9 2.6401 24.440729461896492 4.8063186637082564 4.727783020044674 1 -1 1
8374 732 11 2.1281 23.218613709491493 13.239907243288323 15.197662699477243 -2 2 0
11051 442 32 -2.1019 27.37845633406859 6.646017098863037 9.267792926422965 0 1 -1
11213 469 32 -2.1019 20.41495449467213 6.701454157108522 14.092533872185214 1 3 -2
5221 469 14 1.7919 20.434892346091896 6.674587274486349 14.098076240851853 1 3 -2
8373 732 10 2.1449 23.622636532075212 12.524688092624377 13.87303002973721 -2 2 0
10779 379 27 -3.6401 24.444066322425705 4.806468631073987 4.716017139470981 1 -1 1
10882 414 31 -1.8561 20.983198130871347 13.499777614616693 9.869212583133644 1 1 5
4560 414 13 1.4661 21.018904379294383 13.47408496640868 9.858047512546415 1 1 5
5217 469 10 2.1449 20.9571684275786 9.457694807416287 13.34834529038787 1 3 -2
11209 469 28 -2.4449 20.963057045753366 9.477159304925369 13.337287594800108 1 3 -2
5224 469 17 0.08 20.882929933573273 10.544688569895769 13.380447574881876 1 3 -2
5225 469 18 0.12 21.748530361723063 9.082773864434804 12.699296717745161 1 3 -2
4567 414 20 0.26 21.805772625543888 11.23591935155769 7.8519050112049955 1 1 5
6487 574 20 0.26 23.832134544955707 7.632759690163482 13.602780560011665 2 1 -5
11842 574 31 -1.8561 25.392710924894775 5.782608263919833 13.217269924614726 2 1 -5
8380 732 17 0.08 23.773868847448618 11.445443764947811 13.852142671475564 -2 2 0
4892 441 21 0.24 23.894366199840576 9.814501383633823 7.237433467408253 -2 0 -2
8783 766 12 2.1192 21.647184088992272 5.739989506448823 8.27532710088317 1 0 1
7141 629 14 1.7919 25.19193515153256 14.695648506097186 5.534911648464227 2 2 -1
11841 574 30 -1.7492 24.245011065921517 5.736413533738978 13.708539087111088 2 1 -5
6479 574 12 2.1192 24.23310586792351 5.748594782345699 13.706260908246097 2 1 -5
6398 567 15 1.6619 24.969978369081222 9.35969201851368 14.93517838376039 0 1 -3
4901 442 18 0.12 26.87177863361149 9.665173141220318 8.452586113985936 0 1 -1
11065 445 28 -2.4449 20.15406997287048 4.941140765774329 4.613312864455138 -2 0 -2
4558 414 11 2.1281 22.95277795106241 12.092403679645617 9.8754727409751 1 1 5
12996 766 33 -2.1019 20.715965507822574 6.459370046725848 10.397383511909544 1 0 1
12791 732 32 -2.1019 21.036474258995465 12.60300355679368 15.262715970069797 -2 2 0
8790 766 19 0.12 22.630096444901284 6.85212870702647 9.91035814216774 1 0 1
4889 441 18 0.12 20.86299709007453 8.503377076945156 6.082528493433669 -2 0 -2
4929 445 10 2.1449 20.169441034003267 4.949091751701601 4.604780365913262 -2 0 -2
11388 498 33 -2.1019 26.361618888522393 14.408956432052992 8.394295016106843 -2 2 -2
5570 498 15 1.6619 26.391536842437397 14.381590178939767 8.376212843022746 -2 2 -2
6480 574 13 1.4661 25.38558961805504 5.785591065095749 13.213798826263792 2 1 -5
12173 629 32 -2.1019 25.17031345478516 14.76424575237392 5.543438205728281 2 2 -1
4888 441 17 0.08 20.518467267431742 10.215267789254955 6.118726051474123 -2 0 -2
4884 441 13 1.4661 23.490203510704667 11.877463772510957 6.134780390216791 -2 0 -2
4887 441 16 0.13 20.564401448128663 9.635580836495768 4.677808767030653 -2 0 -2
11386 498 31 -1.8561 27.361856382037583 12.389450276539026 7.0802198977975745 -2 2 -2
8784 766 13 1.4661 20.702033323309607 6.349599821822136 7.70438285954945 1 0 1
12992 766 29 -2.0081 21.878799327407993 6.073461916076777 9.727566550566953 1 0 1
4898 442 15 1.6619 25.490334368312492 7.646160937689667 6.284171563124176 0 1 -1
10884 414 33 -2.1019 23.43007308957472 13.004427762809446 10.879892337839339 1 1 5
12994 766 31 -1.8561 20.68836099989662 6.3583175085417665 7.686906214447148 1 0 1
8782 766 11 2.1281 21.903511987344206 6.061272233310351 9.724010359202724 1 0 1
4566 414 19 0.12 23.717971905460523 12.050934183507527 9.100331466690783 1 1 5
4904 442 21 0.24 25.486646216230078 6.7082158050685265 6.169057326831273 0 1 -1
5571 498 16 0.13 26.00422120278015 13.571590083241139 10.76509418103319 -2 2 -2
5573 498 18 0.12 26.21896801367106 12.055562653133432 9.827940368267058 -2 2 -2
4883 441 12 2.1192 23.114308814074107 10.970628243941153 5.36943462658934 -2 0 -2
11802 567 33 -2.1019 24.981505628279077 9.355903848236846 14.886512669348285 0 1 -3
12788 732 29 -2.0081 23.22499135144226 13.254756178878429 15.225939315151107 -2 2 0
8787 766 16 0.13 23.540137532469572 4.703940110975651 10.414609541166108 1 0 1
10883 414 32 -2.1019 21.277620891697474 11.995877153866898 8.218339955708768 1 1 5
4561 414 14 1.7919 21.299461042058816 11.967241726770688 8.171007206804456 1 1 5
8786 766 15 1.6619 20.734969714997003 6.457014183052454 10.35415845461046 1 0 1
8379 732 16 0.13 22.729835636817874 12.593562462302629 13.25155330838713 -2 2 0
10880 414 29 -2.0081 22.92851053576264 12.103619161342195 9.86750039666704 1 1 5
11041 441 28 -2.4449 21.08926847869006 9.475879459721284 5.627413506764396 -2 0 -2
4881 441 10 2.1449 21.10564002694507 9.453275735186033 5.606193249189193 -2 0 -2
8381 732 18 0.12 24.49454150966109 12.968205263411326 13.392229371284976 -2 2 0