LAMMPS data file via write_data, version 29 Oct 2020, timestep = 30000000

14400 atoms
33 atom types
13500 bonds
28 bond types
16200 angles
25 angle types
20400 dihedrals
28 dihedral types

4.126376129604201 50.87362387041974 xlo xhi
4.126376129604201 50.87362387041974 ylo yhi
4.126376129604201 50.87362387041974 zlo zhi

Masses

1 13.607
2 11.611
3 1.008
4 11.611
5 11.611
6 1.008
7 15.599
8 1.008
9 35.05300000000003
10 11.611
11 11.611
12 11.611
13 15.599
14 15.599
15 15.599
16 1.008
17 1.008
18 1.008
19 1.008
20 1.008
21 1.008
22 0.4000000000000006
23 0.4
24 0.4
25 0.4
26 0.4
27 0.3999999999999965
28 0.4
29 0.4
30 0.4
31 0.4
32 0.4
33 0.4

Bond Coeffs # harmonic

1 382.003 1.448
2 339.986 1.09
3 267.925 1.529
4 320.005 1.41
5 553 0.945
6 267.997 1.529
7 340.01 1.09
8 340.01 1.09
9 340.01 1.09
10 316.993 1.522
11 320.005 1.41
12 340.01 1.09
13 570.005 1.229
14 450 1.364
15 553.011 0.945
16 553.011 0.945
17 500 0
18 500 0
19 500 0
20 500 0
21 500 0
22 500 0
23 500 0
24 500 0
25 500 0
26 500 0
27 500 0
28 500 0

Angle Coeffs # harmonic

1 51.8045 107.2
2 35.0024 109.5
3 32.9947 107.8
4 56.2022 109.5
5 37.5 110.7
6 50 109.5
7 35.0024 109.5
8 54.9952 108.5
9 37.5 110.7
10 37.5 110.7
11 37.5 110.7
12 33.0067 107.8
13 33.0067 107.8
14 33.0067 107.8
15 63.0019 111.1
16 50 109.5
17 37.5 110.7
18 51.6491 110.5
19 34.9904 109.5
20 34.9904 109.5
21 79.9952 120.4
22 70.0048 108
23 79.9952 121
24 34.9904 113
25 54.9952 108.5

Dihedral Coeffs # opls

1 0 0 0.55999 0
2 0.415989 -0.128011 0.695005 0
3 -1.013 -0.709011 0.472992 0
4 -10.5286 -1.29897 0 0
5 0 0 0.3 0
6 0 0 0.467997 0
7 -0.355999 -0.173996 0.491993 0
8 0 0 0.45 0
9 0 0 -0.1 0
10 0 0 0.467997 0
11 0 0 0.3 0
12 0 0 -0.1 0
13 0 0 0.467997 0
14 0 0 0.3 0
15 0 0 -0.1 0
16 0 0 0.467997 0
17 0 0 0.3 0
18 0 0 0 0
19 1 0.546009 0.45 0
20 0 0 0 0
21 9.50801 0 0 0
22 0 0 0 0
23 0 0 0 0
24 -0.355999 -0.173996 0.491993 0
25 -0.355999 -0.173996 0.491993 0
26 0 0 0.352008 0
27 1.5 5.5 0 0
28 0 5.5 0 0

Atoms # full

6564 564 9 2.6401 10.664426177320838 7.4379783497209875 6.973297164677896 0 0 0
12564 564 27 -3.6401 10.664372768182382 7.432989314844049 6.971503045895534 0 0 0
6557 557 9 2.6401 7.542732807327013 6.2071486603395725 13.572543104780136 0 0 1
12557 557 27 -3.6401 7.553056259876491 6.2202674975247065 13.588679167045584 0 0 1
2807 134 4 2.0672 8.966791968954377 10.17221823015266 9.497105306988802 0 0 1
11136 134 24 -2.2372 8.958416977060772 10.154818923071616 9.456404867108297 0 0 1
2811 134 6 0.06 7.091485147683906 9.58039260681867 8.31984711442575 0 0 1
11137 134 25 -2.3074 8.144613596987877 9.432475057464886 8.267999528723971 0 0 1
2809 134 5 2.5824 8.1663238327006 9.399776017982365 8.305449343475498 0 0 1
2812 134 6 0.06 8.135898633122979 8.318455881780187 8.43934981373597 0 0 1
11138 134 26 -2.1019 8.540312601256506 9.712808498040124 6.933681216799524 0 0 1
2813 134 7 1.4189 8.560127702985435 9.672432460624984 6.972636890111394 0 0 1
2814 134 8 0.418 9.269411613865659 9.094597817442118 6.735883331839553 0 0 1
5690 271 7 1.4189 6.220230016723788 6.508511989339784 8.245148906788957 1 0 0
10683 69 26 -2.1019 6.7799340335741896 8.484109615046588 11.700840101756011 0 0 0
1448 69 7 1.4189 6.7489536121357805 8.424116046375751 11.719090818527201 0 0 0
1449 69 8 0.418 7.124764258310993 7.89005823292039 12.402154290596789 0 0 0
1444 69 5 2.5824 5.546202349007942 7.799086743311357 11.305490748579201 0 0 0
10682 69 25 -2.3074 5.584751067253902 7.851137027763093 11.301193469987707 0 0 0
1447 69 6 0.06 5.727044991701487 6.765849255920359 11.009137941636302 0 0 0
12316 316 27 -3.6401 11.644780943302123 10.402264273232943 11.76093846548173 0 0 -1
6316 316 9 2.6401 11.654992258097916 10.406496586197854 11.766954734154147 0 0 -1
2810 134 3 0.13 8.794639832886775 9.69111234170731 10.45991593422377 0 0 1
12097 271 26 -2.1019 6.239926827491327 6.577174742706912 8.222123480261587 1 0 0
10984 112 26 -2.1019 12.69575496848634 7.650036612231587 11.351642260231419 0 0 1
1442 69 4 2.0672 4.455027822146518 7.730154229950267 12.403654795044691 0 0 0
1997 96 2 2.2749 12.623529210739758 10.604933289683755 6.6589613269573125 0 1 1
10867 96 23 -2.4449 12.633230300467197 10.59505375621501 6.653799629910927 0 1 1
1434 69 3 0.13 5.332689901707992 10.391615757471023 12.789597753936805 0 0 0
2004 96 3 0.13 12.679802753084509 10.5894075477769 5.57052176236701 0 1 1
10681 69 24 -2.2372 4.479599891743462 7.765084055847196 12.401562616663838 0 0 0
2352 112 8 0.418 12.151197139801468 8.423938277108942 11.627733241113855 0 0 1
10679 69 23 -2.4449 4.785884482483609 9.933321391452548 13.627163986254867 0 0 0
1431 69 2 2.2749 4.800702169688175 9.922504805368213 13.617261958407438 0 0 0
1435 69 3 0.13 5.499786409472569 9.41934809952204 14.285256094303648 0 0 0
1443 69 3 0.13 4.955221545348608 7.138866709980725 13.17065387399447 0 0 0
2003 96 3 0.13 12.08998467454223 9.671359320880406 6.837508858959675 0 1 1
5691 271 8 0.418 5.56564015518878 6.579155202669481 8.92305002406804 1 0 0
1996 96 1 2.0273 13.872841503579062 10.732355940325538 7.417458721580808 0 1 1
10866 96 22 -1.9073 13.863566795848135 10.718124978567914 7.4215158090501525 0 1 1
2010 96 3 0.13 14.090028519165863 8.611975712051738 7.544668172640159 0 1 1
5676 271 3 0.13 7.702146288076317 7.150052429722248 6.4608520905973394 1 0 0
5673 271 2 2.2749 7.655710723897001 6.641354059717697 5.4979559905928115 1 0 0
12093 271 23 -2.4449 7.655357740755702 6.63324803068195 5.4666907758954775 1 0 0
2351 112 7 1.4189 12.671115190742215 7.690719874089713 11.336008811922438 0 0 1
2350 112 6 0.06 12.906487797366573 7.618367026063294 9.178786143872072 0 0 1
2349 112 6 0.06 11.38134869217616 8.131403032298305 9.775833084505935 0 0 1
10983 112 25 -2.3074 12.166637680488623 7.395884050788379 9.995286308702003 0 0 1
2347 112 5 2.5824 12.182484035573225 7.4178553952856605 9.96854421340982 0 0 1
1446 69 6 0.06 5.155047170447067 8.19468472391982 10.368149869003545 0 0 0
2423 116 3 0.13 12.702993855731023 6.09786840668957 6.580957671544492 0 1 1
11107 130 23 -2.4449 9.140717789800016 10.123163120516496 13.9862487078855 0 0 0
2713 130 2 2.2749 9.154103509099055 10.15345709970788 13.953901778550248 0 0 0
4085 195 3 0.13 5.816313730631931 8.911630743622325 6.1563376707584805 1 0 0
2720 130 3 0.13 8.63868535817202 9.51045722570107 13.240454697180681 0 0 0
10982 112 24 -2.2372 11.704237679595996 5.973233057703313 9.935426018756184 0 0 1
2345 112 4 2.0672 11.736099088963973 5.9998877233464345 9.888069245514881 0 0 1
2721 130 3 0.13 9.966530807199 10.665279069134634 13.43805108452236 0 0 0
10868 96 23 -2.4449 13.472973184709438 10.93841095323963 8.793915513204794 0 1 1
2002 96 3 0.13 13.285934008315401 9.915976998639493 9.179547921347933 0 1 1
1998 96 2 2.2749 13.49767806856698 10.92394285677071 8.822788822861954 0 1 1
2808 134 3 0.13 10.032316477118737 10.196459278484172 9.268694442010506 0 0 1
5932 283 3 0.13 13.9428131101118 11.099895575378758 12.494696550169897 0 0 0
2009 96 4 2.0672 14.684101996236809 9.470627959609248 7.231775444684144 0 1 1
10870 96 24 -2.2372 14.67990700992246 9.493687161274853 7.242313693284022 0 1 1
2416 116 1 2.0273 12.99031458651021 5.934102682592236 4.552927832984391 0 1 1
2426 116 3 0.13 11.386641520955425 7.230359202482614 4.800929734506084 0 1 1
11006 116 22 -1.9073 12.985631439970552 5.9317580566228125 4.5378219472742085 0 1 1
1433 69 3 0.13 4.2050394093997285 10.668642619653422 14.14315778363159 0 0 0
2348 112 3 0.13 11.618849744327477 5.843005230505034 8.815805298121733 0 0 1
2346 112 3 0.13 12.58492398000125 5.346545271081943 10.089918806147661 0 0 1
11562 195 23 -2.4449 4.979712811157801 9.572522537230306 6.104943571482905 1 0 0
4078 195 2 2.2749 4.976751930138963 9.603921820525715 6.093306068367533 1 0 0
2341 112 3 0.13 9.476673486555153 7.362625757516324 11.015244749740486 0 0 1
12096 271 25 -2.3074 6.56752469517605 5.227439519733267 8.051466359474533 1 0 0
5686 271 5 2.5824 6.559434447660285 5.149852226916886 8.068206983668162 1 0 0
10978 112 22 -1.9073 10.54332729050312 5.539571906568217 10.703314120810926 0 0 1
2332 112 1 2.0273 10.562802409695607 5.528641092924452 10.66721089828116 0 0 1
10979 112 23 -2.4449 9.456221852596443 6.41631554884818 10.45629990563927 0 0 1
2340 112 3 0.13 9.36531547329452 6.49405003982821 9.388197585364257 0 0 1
11106 130 23 -2.4449 10.54388826278988 8.332629868856325 14.786685744833449 0 0 0
2715 130 3 0.13 10.190830350792638 7.611241802522457 14.061884175934871 0 0 0
2712 130 2 2.2749 10.531402417159352 8.346177265556712 14.79126179587058 0 0 0
2714 130 3 0.13 11.325028473171201 8.816765703249771 14.210911460109704 0 0 0
11132 134 22 -1.9073 8.55234662006236 11.576949432780726 9.728232261274648 0 0 1
2794 134 1 2.0273 8.535980906193204 11.603473172266833 9.743309862620364 0 0 1
2335 112 2 2.2749 10.841054543088454 5.34076555579662 12.095835238007938 0 0 1
2342 112 3 0.13 10.773997324855689 6.256463326174472 12.6832876692017 0 0 1
2333 112 2 2.2749 9.452694247571383 6.417937509593024 10.47202436102391 0 0 1
12091 271 22 -1.9073 7.66136791066241 5.188646264508809 5.64074290035579 1 0 0
10981 112 23 -2.4449 10.834219431299518 5.31833916239763 12.110031860398191 0 0 1
2343 112 3 0.13 11.836091226552693 4.983806254494074 12.361510626927991 0 0 1
2344 112 3 0.13 10.203861883287942 4.558014143933015 12.50741045767797 0 0 1
5214 249 3 0.13 10.325937272756523 10.602673693143803 5.005373588837739 0 0 0
2799 134 3 0.13 7.217179853365657 11.101776138562215 11.2304264799184 0 0 1
2800 134 3 0.13 6.3170538591616054 11.447803161429224 9.719893359101754 0 0 1
2012 96 3 0.13 14.919334228120768 9.266087303388243 6.187296053588345 0 1 1
5931 283 3 0.13 14.781724050846051 9.93615327290421 11.52093889854292 0 0 0
5671 271 1 2.0273 7.657010973062432 5.181652147592582 5.6129193688621015 1 0 0
4083 195 3 0.13 4.757258514043113 8.569647672427255 8.40656058447912 1 0 0
5684 271 4 2.0672 6.584080084673449 4.712348329570529 6.550447878423608 1 0 0
2000 96 3 0.13 12.604798309723911 11.51615394207078 9.023180498109403 0 1 1
2001 96 3 0.13 14.234209314515336 11.32059270247478 9.521565436633605 0 1 1
5219 249 3 0.13 7.335754550509899 11.684058086840716 4.738621933968862 0 0 0
5262 251 3 0.13 4.446893353702366 4.6051678128475135 11.930968220218624 0 0 0
2417 116 2 2.2749 12.680273845430028 5.284938471274881 5.855197519753454 0 1 1
2005 96 3 0.13 11.974472636147851 11.445791564407852 6.903473086497631 0 1 1
2726 130 3 0.13 7.676237636285675 8.19386802391179 14.775624764657247 0 0 0
2339 112 3 0.13 8.51861037682708 5.945177093347482 10.775493553282535 0 0 1
5924 283 2 2.2749 14.72413724675874 10.340759010415162 12.531427661697657 0 0 0
2722 130 3 0.13 8.494732467572778 10.977835171314933 14.225441376505339 0 0 0
11134 134 23 -2.4449 7.230072615748445 11.660096089916168 10.26778960097495 0 0 1
2796 134 2 2.2749 7.20800075631155 11.676915616882175 10.304557329703165 0 0 1
2418 116 2 2.2749 14.000677337531439 6.953277077021176 4.835997592063174 0 1 1
5688 271 6 0.06 7.49770770408959 4.956788475353974 8.5882740812199 1 0 0
11007 116 23 -2.4449 12.67993682133311 5.245071661572347 5.80598292943156 0 1 1
11104 130 22 -1.9073 9.541974598398298 9.341692403475705 15.11382215691948 0 0 0
11008 116 23 -2.4449 13.962179623272135 6.955208745418583 4.838828511231283 0 1 1
2710 130 1 2.0273 9.501655754072123 9.348811196354555 15.103045355985689 0 0 0
5675 271 3 0.13 8.324000786797964 6.987904660979725 4.709669896637927 1 0 0
5677 271 3 0.13 6.6803849125825145 6.900750063658952 5.08617685509476 1 0 0
2716 130 3 0.13 10.773344116585584 7.812158143860536 15.710168842503979 0 0 0
5674 271 2 2.2749 8.97905348601008 4.694173262656582 6.119393316891037 1 0 0
5681 271 3 0.13 9.800140837788366 4.912881844543362 5.436688744860197 1 0 0
8935 795 16 0.13 13.516780971789135 6.004000191123941 13.755095477495006 0 -2 -1
4087 195 3 0.13 4.853713582940286 9.83970306575247 5.036245576921633 1 0 0
12095 271 24 -2.2372 6.574677937957856 4.743604860071108 6.5529179400265605 1 0 0
5683 271 3 0.13 9.216496274248069 5.195584575599273 7.057639721391589 1 0 0
8887 791 16 0.13 14.929337172929632 4.644232494989323 11.478473823317664 0 3 -1
5930 283 3 0.13 14.38105143057292 9.570332248543314 13.221964351260572 0 0 0
14304 884 33 -2.1019 13.722314792702477 8.806859377322326 15.773710748894825 0 2 1
12176 283 23 -2.4449 14.786996842903257 10.34871964993542 12.55305741626372 0 0 0
5689 271 6 0.06 5.742157170436567 4.596239055247949 8.530460465097665 1 0 0
8929 795 10 2.1449 14.328787952167227 5.510814619508651 14.289436553395513 0 -2 -1
12550 550 27 -3.6401 14.848582536804027 6.1659053241832265 8.070606042564643 0 0 0
5685 271 3 0.13 5.643402365576697 4.947374765834335 6.052454903109433 1 0 0
12092 271 23 -2.4449 7.471126369839733 4.613737215455687 4.308576730240824 1 0 0
12094 271 23 -2.4449 8.973406063213897 4.667471675242861 6.114909769436742 1 0 0
8891 791 20 0.26 15.528795756325689 6.916745847080296 10.053643280080518 0 3 -1
2420 116 3 0.13 13.55175145307592 7.802657489217952 5.350895549294316 0 1 1
10008 884 21 0.24 13.688799183250435 9.62691824296684 15.252667195940797 0 2 1
2334 112 2 2.2749 10.143105752610298 4.199891294387275 10.112577659598111 0 0 1
2805 134 3 0.13 9.3386479176559 11.591930840551585 11.614291873855445 0 0 1
13765 795 28 -2.4449 14.31346528420441 5.477607370139045 14.29423212420519 0 -2 -1
2424 116 3 0.13 13.43412257210128 4.655583985896515 6.32819598824184 0 1 1
4086 195 3 0.13 5.27811433328367 10.43770817221441 6.727403322397836 1 0 0
4080 195 3 0.13 4.168989771525032 7.055646241530564 6.729642081556829 1 0 0
2336 112 3 0.13 9.779052556266466 4.291450036742536 9.089253818851159 0 0 1
13741 791 28 -2.4449 15.655139041653882 4.150830482188136 10.796547886886504 0 3 -1
2425 116 3 0.13 11.708660085133047 4.799389795869585 5.946404716170594 0 1 1
10980 112 23 -2.4449 10.166001610243221 4.231968394973125 10.116781561528931 0 0 1
2422 116 3 0.13 14.903402664357579 6.59241786292929 5.328916032995314 0 1 1
8930 795 11 2.1281 13.724798275592784 4.420453459644953 15.126166485892545 0 -2 -1
8881 791 10 2.1449 15.630065616773695 4.169520082519203 10.791647217204039 0 3 -1
6550 550 9 2.6401 14.847740080712663 6.168168273508966 8.05334993835605 0 0 0
2723 130 4 2.0672 8.15884387296324 8.77526547102329 15.5612325589393 0 0 0
13766 795 29 -2.0081 13.706386154949302 4.40068767942354 15.141397352097071 0 -2 -1
8936 795 17 0.08 15.180880353757853 5.093211060361128 13.75310557362558 0 -2 -1
8937 795 18 0.12 14.759282699590155 6.311826094358336 14.89039654894084 0 -2 -1
10002 884 15 1.6619 13.710504403154179 8.844150054779101 15.781657480162535 0 2 1
5213 249 3 0.13 8.956599927316402 9.713521228908636 4.363284538661779 0 0 0
5672 271 2 2.2749 7.480379072693578 4.583629011830597 4.266813822616579 1 0 0
4436 212 3 0.13 8.821335696789031 4.5922569490084655 15.65224650396685 0 1 0
11108 130 24 -2.2372 8.200970811414688 8.816280691846629 15.564863224082487 0 0 0
2719 130 3 0.13 10.846607023324456 10.998065156331904 15.805807098775311 0 0 0
14302 884 31 -1.8561 13.835942915984026 11.327810107218744 15.71042811851789 0 2 1
4449 212 6 0.06 5.035038593676725 4.776303743525513 15.726981098453942 0 1 0
10000 884 13 1.4661 13.824057114333876 11.315084181492306 15.744847367250177 0 2 1
2430 116 3 0.13 14.364151894908268 4.515970817218088 4.134950489120129 0 1 1
5211 249 2 2.2749 9.687255634288622 10.487882567296275 4.129583895527134 0 0 0
5284 252 3 0.13 7.567602608977303 15.574425407691947 4.720382765552101 1 0 0
5279 252 3 0.13 4.688460106608907 17.040915039223247 4.735844893017 1 0 0
2803 134 3 0.13 7.763758317868319 11.972777625043765 7.721309780017932 0 0 1
10869 96 23 -2.4449 14.467920912371293 11.941025056228542 7.006275517474173 0 1 1
10399 29 23 -2.4449 4.806329585308016 16.718950011657157 9.967231190008238 1 0 0
5414 258 3 0.13 5.4926137813567895 12.967446179014608 15.176042539505778 0 0 0
1999 96 2 2.2749 14.490938462343717 11.98686232442771 7.008291148909803 0 1 1
595 29 3 0.13 5.464264738854528 17.55747672076474 10.227732419883488 1 0 0
591 29 2 2.2749 4.819557601268832 16.731306551844465 9.927909370702176 1 0 0
2008 96 3 0.13 14.736227869816048 12.019743504973784 5.946754764333066 0 1 1
5935 283 3 0.13 15.59251467625235 12.060568867957201 14.542334148211296 0 0 0
9047 804 20 0.26 6.682139754725515 17.183698847913085 15.514483158031085 0 0 -2
594 29 3 0.13 4.904963800675388 16.62689995153876 8.846283887311563 1 0 0
2801 134 3 0.13 9.400984770801006 12.305095945028445 7.909554552591536 0 0 1
3806 182 3 0.13 13.382744291520861 13.256539599652307 13.212413833758346 0 0 0
601 29 3 0.13 5.665275320929588 17.02886863875343 12.37226598353447 1 0 0
11135 134 23 -2.4449 9.35230554053993 12.284053501452819 10.74174403584329 0 0 1
2797 134 2 2.2749 9.383186891381643 12.282001507897508 10.771722557371277 0 0 1
2804 134 3 0.13 10.436962384705819 12.301007058868056 10.493697737881284 0 0 1
3808 182 3 0.13 12.540893450513412 13.456076139108909 14.714206708801997 0 0 0
6551 551 9 2.6401 15.24837085720564 14.544956692406437 8.83764246976325 0 0 0
5212 249 2 2.2749 8.189619762423067 12.335215175159956 4.5514907723622375 0 0 0
2795 134 2 2.2749 8.46448891475967 12.351560893432653 8.465360271533788 0 0 1
5942 283 7 1.4189 15.80829895624408 14.022324675995975 13.052893284799726 0 0 0
11133 134 23 -2.4449 8.470667584769357 12.355516127011299 8.479991512090757 0 0 1
2798 134 3 0.13 6.906033565575486 12.64190317882965 10.711639169132331 0 0 1
2007 96 3 0.13 13.784746952181937 12.807377605731492 7.135381905687057 0 1 1
603 29 3 0.13 4.774816432965276 13.580070341639885 11.175160760453958 1 0 0
599 29 3 0.13 5.4269241136103386 15.354810424493518 12.942653226199697 1 0 0
5221 249 3 0.13 8.666416530113565 12.595720369851385 5.496424887260801 0 0 0
598 29 3 0.13 7.086115563165405 14.716371597023098 11.429165269616703 1 0 0
608 29 7 1.4189 5.519484395997807 13.762205076653034 8.515379837156933 1 0 0
10403 29 26 -2.1019 5.568619689305732 13.765932694241908 8.546191071998724 1 0 0
609 29 8 0.418 5.35379629898634 13.18993148163522 7.781838506191927 1 0 0
6433 433 9 2.6401 7.0266575992579545 13.040741713701705 13.203911183418695 0 0 0
12433 433 27 -3.6401 7.017681265130303 13.035921139066145 13.199952879609924 0 0 0
3811 182 3 0.13 13.89210452082375 15.501643957737663 14.403145949648124 0 0 0
3810 182 3 0.13 14.095986070035067 15.464763610536217 12.758071297321125 0 0 0
372 18 3 0.13 14.969095622687007 16.250782148593135 6.941545171103951 0 0 0
373 18 5 2.5824 15.04516471048326 17.595349385884152 8.416023579194022 0 0 0
3812 182 3 0.13 12.371697220323675 14.485041523871612 11.415454504148395 0 0 0
5286 252 3 0.13 8.64341572867865 18.493414390293125 5.262586659752296 1 0 0
3813 182 3 0.13 11.354877222455716 16.046171125724563 11.747062054250467 0 0 0
2806 134 3 0.13 9.049745510616397 13.314282565800955 10.878091881569112 0 0 1
3822 182 8 0.418 8.599517555456876 13.474122911946619 14.184844779752577 0 0 0
3803 182 2 2.2749 13.352876525488586 15.770132889372167 13.494714717444529 0 0 0
11469 182 23 -2.4449 13.318468231401473 15.772379511338107 13.503555793685454 0 0 0
3802 182 1 2.0273 12.090545864371215 14.99601662624093 13.360065183013514 0 0 0
11471 182 23 -2.4449 11.675305417005946 15.026421886864611 12.038237840174896 0 0 0
3805 182 2 2.2749 11.646154150069261 15.03138535325079 12.018116816088577 0 0 0
369 18 3 0.13 13.110979466413095 17.143738862655887 4.785638728517716 0 0 0
5288 252 3 0.13 7.455901203339405 19.011752431087032 6.259898676301677 1 0 0
364 18 3 0.13 11.056400445409672 17.7603047786075 6.905905657176621 0 0 0
2802 134 3 0.13 8.087589203401972 13.371114829217895 8.54634480020179 0 0 1
365 18 3 0.13 11.32876377906577 15.676246137256257 7.726734427314184 0 0 0
3818 182 3 0.13 10.985200757498493 16.656985179995658 14.280775709370264 0 0 0
589 29 1 2.0273 5.254804807844939 15.653250536016012 10.807400801021528 1 0 0
11958 252 22 -1.9073 6.871029539805689 17.60488690029977 4.807848555499068 1 0 0
5273 252 2 2.2749 5.548649836681409 17.283957202321396 5.3596357522307905 1 0 0
11959 252 23 -2.4449 5.556597297867758 17.284927841872683 5.355800198210076 1 0 0
370 18 3 0.13 11.710399160917575 16.273637963896064 5.304557726680245 0 0 0
5285 252 4 2.0672 7.798086221151255 18.07887822732573 5.811840531009438 1 0 0
11962 252 24 -2.2372 7.78728843750069 18.041212859266917 5.786236862029295 1 0 0
5289 252 6 0.06 7.335195714839024 16.852097741519934 7.539424588831814 1 0 0
11473 182 25 -2.3074 9.629646980491327 14.987996238368096 14.363450657996866 0 0 0
3817 182 5 2.5824 9.595726739035065 15.036349758632308 14.357991054525783 0 0 0
3819 182 6 0.06 9.127921326729153 15.293354416418634 13.407614478756106 0 0 0
361 18 2 2.2749 12.737605925437933 16.50518894048075 5.586232393619649 0 0 0
5291 252 7 1.4189 9.014740376210558 16.084827806615838 6.565176085265122 1 0 0
11963 252 25 -2.3074 8.219476582553606 17.18234711811822 6.975960698079327 1 0 0
11472 182 24 -2.2372 11.059544951841374 15.55795677995459 14.28537311296922 0 0 0
3815 182 4 2.0672 11.05685643036943 15.569435081233706 14.294964778237308 0 0 0
10322 18 23 -2.4449 12.10447146043247 18.049450504502005 7.101954271175455 0 0 0
360 18 2 2.2749 12.081591527634679 18.081386884045575 7.090295977408651 0 0 0
359 18 2 2.2749 12.385515655580365 15.901829102194322 7.86990452275184 0 0 0
10321 18 23 -2.4449 12.389888565944704 15.918446810986776 7.834153892132828 0 0 0
6480 480 9 2.6401 9.691311202992955 15.985332195047429 9.643599613139921 0 0 0
358 18 1 2.0273 12.933063135107576 16.88365062535567 6.996100908065921 0 0 0
10320 18 22 -1.9073 12.941541169671137 16.879212545028448 6.977364980472341 0 0 0
10326 18 26 -2.1019 14.677965827083414 18.991668631486327 8.741689121975732 0 0 0
377 18 7 1.4189 14.70617117326004 18.94004088630886 8.791417047765346 0 0 0
378 18 8 0.418 14.802880133893307 18.97396431509332 9.730843595852381 0 0 0
12480 480 27 -3.6401 9.680511968401111 16.00802283529495 9.631538752388098 0 0 0
5290 252 6 0.06 8.727996564534589 17.842054693242 7.7450324026249255 1 0 0
11964 252 26 -2.1019 9.03500785809789 16.054683769184628 6.512016253026688 1 0 0
5287 252 5 2.5824 8.217009676045775 17.216956284094636 7.012746682091713 1 0 0
5292 252 8 0.418 9.249624212343964 15.738420230327037 7.412441020783274 1 0 0
10323 18 23 -2.4449 12.737028306453185 16.507099167340066 5.579926123295739 0 0 0
5281 252 3 0.13 5.596460843131627 16.504154462656558 6.119718890000836 1 0 0
5272 252 1 2.0273 6.87074890283138 17.60700701921625 4.809687953825549 1 0 0
366 18 3 0.13 12.45239768151746 16.233510848095996 8.90605774427794 0 0 0
367 18 3 0.13 12.840790523692124 14.944721006169559 7.615392533643473 0 0 0
363 18 3 0.13 12.23573317446181 18.33254760882419 8.139704410104903 0 0 0
362 18 3 0.13 12.417365570034203 18.931329485578765 6.496195054506706 0 0 0
11468 182 22 -1.9073 12.077769549905632 14.995344666068837 13.36718540072533 0 0 0
11474 182 26 -2.1019 9.519864088788234 13.642813020777702 14.500601861180286 0 0 0
3821 182 7 1.4189 9.476964317687871 13.677651375002178 14.470669066608515 0 0 0
371 18 4 2.0672 14.392882662903062 17.161203338363478 7.106525087080074 0 0 0
10324 18 24 -2.2372 14.36140814581482 17.194635972920594 7.11565309153123 0 0 0
3814 182 3 0.13 10.719025392061067 14.467659618483047 11.914405828644247 0 0 0
11470 182 23 -2.4449 12.472178676805543 13.640949688231643 13.624350273567781 0 0 0
3804 182 2 2.2749 12.447359286599118 13.617250378477019 13.640253589399038 0 0 0
374 18 3 0.13 14.546386965482107 17.960071482307672 6.381025284312973 0 0 0
3820 182 6 0.06 9.101371815308102 15.446041197230223 15.23882468799875 0 0 0
10325 18 25 -2.3074 15.030380372770082 17.64508851304429 8.432717217696894 0 0 0
3816 182 3 0.13 11.438027592583797 15.37749301304412 15.297943937754514 0 0 0
3809 182 3 0.13 13.25680959449691 16.854695780560853 13.54565990239974 0 0 0
376 18 6 0.06 14.668447765743778 16.984560003502335 9.236466106176891 0 0 0
12366 366 27 -3.6401 7.871999129818425 17.52040571507829 13.930869745909364 1 0 0
6366 366 9 2.6401 7.878308287180298 17.529273925744594 13.907340108316978 1 0 0
5280 252 3 0.13 5.115756608861513 18.133087828759784 5.888485393593031 1 0 0
590 29 2 2.2749 6.728598831608088 15.471123896710926 10.72871229827617 1 0 0
10397 29 22 -1.9073 5.226242302253759 15.635598531785702 10.808811304325353 1 0 0
596 29 3 0.13 7.276778389754873 16.30293043694566 11.171086742424963 1 0 0
10398 29 23 -2.4449 6.669558590880797 15.504021244605452 10.743712617058264 1 0 0
597 29 3 0.13 7.197274776741228 15.425654624539131 9.745664990213488 1 0 0
4783 228 5 2.5824 9.246821715223254 18.890660340853636 10.782799605275656 0 0 0
11795 228 25 -2.3074 9.259018538794486 18.94639965623907 10.798552048631732 0 0 0
12404 404 27 -3.6401 4.364137784233713 12.772573079024655 5.683617274716061 1 1 0
4785 228 6 0.06 10.029875081991108 18.221265144522405 11.138946242410528 0 0 0
6404 404 9 2.6401 4.382523534568648 12.773623142026578 5.68409561583512 1 1 0
12600 600 27 -3.6401 14.700275258246785 19.05056586201756 11.763687993838774 0 0 0
6600 600 9 2.6401 14.693347696446565 19.04780777789062 11.744596639641541 0 0 0
4784 228 3 0.13 10.149220802363955 19.288574750218633 8.924345830918634 0 0 0
5940 283 6 0.06 14.713953457263283 13.279688109131786 11.456051101774076 0 0 0
4788 228 8 0.418 8.534098546378054 18.911495913796628 12.593062940840667 0 0 0
368 18 3 0.13 13.227839816702858 15.567151282946309 5.325726522065762 0 0 0
12406 406 27 -3.6401 5.758087480142228 19.137507133574466 8.191961521718241 0 0 0
6406 406 9 2.6401 5.783061624642815 19.12997067588416 8.182457548917265 0 0 0
10402 29 25 -2.3074 4.255724674829218 13.91930380637133 9.155109271140502 1 0 0
4786 228 6 0.06 8.507985869452993 18.256622498695315 10.292667941228547 0 0 0
5229 249 8 0.418 12.398405720385963 13.199530099693874 5.078993789866772 0 0 0
5153 246 3 0.13 13.76849872607875 19.173112291656118 4.4870885616759795 0 0 1
3807 182 3 0.13 11.609811923938356 12.934236997359019 13.498416303157299 0 0 0
4777 228 3 0.13 12.167294230164664 19.3957992338776 10.158276033868999 0 0 0
11940 249 23 -2.4449 8.188325962800324 12.328488010513736 4.54241026167164 0 0 0
2006 96 3 0.13 15.433961034429736 12.214125423962347 7.505441538755515 0 1 1
12551 551 27 -3.6401 15.251344383257251 14.557413606651323 8.83192340384936 0 0 0
592 29 2 2.2749 5.081060602429466 16.117504555166995 12.244957164198096 1 0 0
5226 249 6 0.06 10.039676384873793 14.28585477261042 4.622965876229606 0 0 0
12180 283 25 -2.3074 15.715448192715911 13.324146011852728 11.879927786466938 0 0 0
5938 283 5 2.5824 15.74168737598659 13.315770532048893 11.817397020015338 0 0 0
11943 249 26 -2.1019 11.495667485377556 12.842158726928432 5.227233042044919 0 0 0
4787 228 7 1.4189 8.732324318740728 19.564101124824838 11.938966540407252 0 0 0
7989 716 18 0.12 14.76547484806946 19.188998543768303 15.202742248417023 0 -1 -1
10400 29 23 -2.4449 5.04407152018201 16.129498250016866 12.237873250750871 1 0 0
5849 279 3 0.13 5.404333976025362 19.704714955147782 13.106029449032958 0 0 0
11796 228 26 -2.1019 8.722870801452425 19.627327747901585 11.92566652627533 0 0 0
5224 249 5 2.5824 10.822905807065114 13.67862725483949 4.169170615403808 0 0 0
12181 283 26 -2.1019 15.76203214316786 14.055814931697993 13.098536769087406 0 0 0
10401 29 24 -2.2372 4.440362025507641 14.421362930642674 10.575066287979038 1 0 0
604 29 5 2.5824 4.226238287181955 13.900378135843312 9.16575109705429 1 0 0
602 29 4 2.0672 4.436551766209239 14.436570205922221 10.591988870839923 1 0 0
5228 249 7 1.4189 11.512371554836356 12.887323268336486 5.181443349386835 0 0 0
8688 774 21 0.24 15.270536429873676 14.95224071161445 15.662058808506092 -1 -1 2
5276 252 3 0.13 6.231146974908402 19.603456373581913 4.222021784033093 1 0 0
11942 249 25 -2.3074 10.812489725926637 13.636025306811463 4.202229539636425 0 0 0
7375 665 16 0.13 4.394241473310435 25.158902975698297 14.643316070276846 0 2 0
7981 716 10 2.1449 15.586715874180573 19.829325928928295 15.524697398856443 0 -1 -1
9520 844 13 1.4661 4.418132694720154 26.252179040853818 5.655082936468369 1 2 1
10162 897 19 0.12 6.88190304574908 27.484570592424955 10.312948229405704 0 1 -2
13578 763 33 -2.1019 8.458498481823046 27.442386557435977 4.382554750853498 2 0 -2
5856 279 6 0.06 4.374576295571738 21.229370718702004 9.232976939374392 0 0 0
8530 761 19 0.12 14.882711646696745 26.488614170247036 11.766189627988513 0 -1 0
4779 228 3 0.13 10.964979523930847 22.821835149877987 11.075375046876742 0 0 0
5848 279 3 0.13 5.276234411466246 23.737999473731048 11.634683871867406 0 0 0
8550 763 15 1.6619 8.482210282682908 27.451720475613726 4.360868689226227 2 0 -2
869 42 3 0.13 5.75394978057485 23.15520215336316 6.875230691678871 1 0 0
8522 761 11 2.1281 15.077105953386509 26.10553645843414 12.76797297012635 0 -1 0
867 42 3 0.13 8.149060971740344 22.951050984037238 7.373657809279247 1 0 0
13562 761 29 -2.0081 15.093559084187952 26.1172991702304 12.765765176763665 0 -1 0
7991 716 20 0.26 14.445758764835837 20.729105893750905 13.241800928502208 0 -1 -1
5847 279 3 0.13 5.183504202103468 23.34560364062927 13.189535108589446 0 0 0
8521 761 10 2.1449 14.289697902763344 24.75634296765978 12.98014153150451 0 -1 0
8523 761 12 2.1192 14.602293226492653 27.130682405489257 13.761843923666076 0 -1 0
13291 716 28 -2.4449 15.603688702380005 19.824697885759196 15.520116271190624 0 -1 -1
13564 761 31 -1.8561 15.099559297355519 27.285348406591392 14.888397050382979 0 -1 0
4780 228 3 0.13 9.944298173250932 21.69098002350319 11.980672882364866 0 0 0
5858 279 7 1.4189 5.067900545775188 23.004373155021668 9.291126980026874 0 0 0
13563 761 30 -1.7492 14.62967890694995 27.108819997185172 13.774388098418159 0 -1 0
14062 844 31 -1.8561 4.425131679552429 26.248312998491496 5.638214318627357 1 2 1
5854 279 5 2.5824 5.34962916166338 21.6732982144788 9.433752285547657 0 0 0
5151 246 3 0.13 15.059130032842539 21.799224349367634 6.710807792781867 0 0 1
7369 665 10 2.1449 4.298700541913749 26.226946674533796 14.4477091266865 0 2 0
8716 777 13 1.4661 15.02391255247613 24.819881265848245 6.069086632896261 0 0 1