LAMMPS data file via write_data, version 29 Oct 2020, timestep = 30000000

11550 atoms
33 atom types
10890 bonds
28 bond types
11385 angles
25 angle types
13640 dihedrals
28 dihedral types

5.0740460323432135 49.92595396760872 xlo xhi
5.0740460323432135 49.92595396760872 ylo yhi
5.0740460323432135 49.92595396760872 zlo zhi

Masses

1 13.607
2 11.611
3 1.008
4 11.611
5 11.611
6 1.008
7 15.599
8 1.008
9 35.05300000000003
10 11.611
11 11.611
12 11.611
13 15.599
14 15.599
15 15.599
16 1.008
17 1.008
18 1.008
19 1.008
20 1.008
21 1.008
22 0.4000000000000006
23 0.4
24 0.4
25 0.4
26 0.4
27 0.3999999999999965
28 0.4
29 0.4
30 0.4
31 0.4
32 0.4
33 0.4

Bond Coeffs # harmonic

1 382.003 1.448
2 339.986 1.09
3 267.925 1.529
4 320.005 1.41
5 553 0.945
6 267.997 1.529
7 340.01 1.09
8 340.01 1.09
9 340.01 1.09
10 316.993 1.522
11 320.005 1.41
12 340.01 1.09
13 570.005 1.229
14 450 1.364
15 553.011 0.945
16 553.011 0.945
17 500 0
18 500 0
19 500 0
20 500 0
21 500 0
22 500 0
23 500 0
24 500 0
25 500 0
26 500 0
27 500 0
28 500 0

Angle Coeffs # harmonic

1 51.8045 107.2
2 35.0024 109.5
3 32.9947 107.8
4 56.2022 109.5
5 37.5 110.7
6 50 109.5
7 35.0024 109.5
8 54.9952 108.5
9 37.5 110.7
10 37.5 110.7
11 37.5 110.7
12 33.0067 107.8
13 33.0067 107.8
14 33.0067 107.8
15 63.0019 111.1
16 50 109.5
17 37.5 110.7
18 51.6491 110.5
19 34.9904 109.5
20 34.9904 109.5
21 79.9952 120.4
22 70.0048 108
23 79.9952 121
24 34.9904 113
25 54.9952 108.5

Dihedral Coeffs # opls

1 0 0 0.55999 0
2 0.415989 -0.128011 0.695005 0
3 -1.013 -0.709011 0.472992 0
4 -10.5286 -1.29897 0 0
5 0 0 0.3 0
6 0 0 0.467997 0
7 -0.355999 -0.173996 0.491993 0
8 0 0 0.45 0
9 0 0 -0.1 0
10 0 0 0.467997 0
11 0 0 0.3 0
12 0 0 -0.1 0
13 0 0 0.467997 0
14 0 0 0.3 0
15 0 0 -0.1 0
16 0 0 0.467997 0
17 0 0 0.3 0
18 0 0 0 0
19 1 0.546009 0.45 0
20 0 0 0 0
21 9.50801 0 0 0
22 0 0 0 0
23 0 0 0 0
24 -0.355999 -0.173996 0.491993 0
25 -0.355999 -0.173996 0.491993 0
26 0 0 0.352008 0
27 1.5 5.5 0 0
28 0 5.5 0 0

Atoms # full

10263 446 30 -1.7492 8.096303085435485 8.934285943427694 8.729677447822997 3 5 4
5233 446 12 2.1192 8.11075559090768 8.914781138120858 8.740884398672648 3 5 4
5234 446 13 1.4661 6.951926718447741 9.223686188862542 8.916310011609673 3 5 4
10264 446 31 -1.8561 6.939656232913977 9.229328003358628 8.925166679111921 3 5 4
10262 446 29 -2.0081 8.818951074496463 9.239449526049421 7.461427480653874 3 5 4
5232 446 11 2.1281 8.832954360061725 9.23191100238371 7.453120947628013 3 5 4
10266 446 33 -2.1019 8.268379006475016 10.30697276128421 6.698909646652522 3 5 4
5236 446 15 1.6619 8.250825930035937 10.296565551070774 6.725426731654452 3 5 4
5242 446 21 0.24 7.388933102014696 10.538825201542558 7.027924857521625 3 5 4
6776 574 19 0.12 5.2932038055993695 11.331739841345463 9.676869778146669 2 -5 -1
7722 653 17 0.08 7.85060799812232 9.095893841439038 12.474026082080956 0 5 1
10261 446 28 -2.4449 10.329939184596054 9.540634935656877 7.628777413597516 3 5 4
5231 446 10 2.1449 10.3419306628654 9.526743597123371 7.638543206990131 3 5 4
5238 446 17 0.08 10.72615798166531 10.542323058506327 7.733742232037364 3 5 4
5237 446 16 0.13 10.670633167731197 8.984557347753178 8.525168088669387 3 5 4
7718 653 13 1.4661 10.181537643225642 11.837243382140514 13.00387419857819 0 5 1
7724 653 19 0.12 9.9576195860073 9.018272942834509 11.440650826685774 0 5 1
11504 653 29 -2.0081 9.832419842765514 9.507074032828323 12.411094210295369 0 5 1
11506 653 31 -1.8561 10.175925755028599 11.842398520109906 13.01187511445047 0 5 1
7716 653 11 2.1281 9.831323533927586 9.512213300071421 12.4041005000577 0 5 1
11505 653 30 -1.7492 9.66364252517937 11.000140260034529 12.236731100850186 0 5 1
9809 370 32 -2.1019 5.474212880556138 6.326935230199068 10.387476964246943 -1 4 5
7717 653 12 2.1192 9.652718917998481 11.019765333772227 12.207456011380879 0 5 1
5235 446 14 1.7919 8.748346472136925 7.976840780759805 9.503399354987343 3 5 4
11507 653 32 -2.1019 8.713013178365367 11.280902475543195 11.255625321682556 0 5 1
9807 370 30 -1.7492 6.322281760356606 6.068456583682045 11.424922589569363 -1 4 5
10265 446 32 -2.1019 8.762184889047008 8.013820393212141 9.493995669897133 3 5 4
5241 446 20 0.26 8.188912793929436 7.654059021414762 10.193252726212734 3 5 4
3016 261 15 1.6619 10.310377903598349 5.119710502041493 14.240816888465657 -1 4 0
7725 653 20 0.26 8.45159095382936 12.220402419095855 11.241594930427489 0 5 1
7719 653 14 1.7919 8.690198970618274 11.306016334810712 11.240918437095363 0 5 1
7628 645 19 0.12 12.289109199627216 15.90149815977653 6.774310861286559 2 6 4
7620 645 11 2.1281 11.808202895676928 15.085718876011123 6.234569915640529 2 6 4
11456 645 29 -2.0081 11.816154334094872 15.077448193961194 6.237160288493743 2 6 4
7715 653 10 2.1449 8.663658470852315 8.877469225247584 13.166414365168798 0 5 1
5240 446 19 0.12 8.452365634062971 8.317475566545596 6.998002149842528 3 5 4
11455 645 28 -2.4449 10.487599504234852 15.465538392485591 5.540346134220993 2 6 4
11503 653 28 -2.4449 8.664973284875444 8.868334359356462 13.178148516249436 0 5 1
3523 303 18 0.12 12.067108783178561 13.987240239411372 13.291132009056689 0 -5 -3
3020 261 19 0.12 10.526020565141383 6.781136750482497 15.279861606958157 -1 4 0
3012 261 11 2.1281 11.039035150855026 5.8309118276494 15.131518445959449 -1 4 0
9152 261 29 -2.0081 11.040592408220629 5.8324739297871755 15.107425013335797 -1 4 0
7723 653 18 0.12 8.573096439807696 9.311101944130208 14.162336117519843 0 5 1
7721 653 16 0.13 8.65454850550458 7.788457750848618 13.212536441727531 0 5 1
7619 645 10 2.1449 10.482769267719661 15.468416177317275 5.546103504925802 2 6 4
11508 653 33 -2.1019 10.971867367631594 9.32545502639283 13.232796366442784 0 5 1
7720 653 15 1.6619 10.97541721005277 9.36363693549371 13.202657387512284 0 5 1
7726 653 21 0.24 11.483165193644226 9.885244350537775 12.600031154030315 0 5 1
5239 446 18 0.12 10.914390169673378 9.13674595296258 6.796914599013384 3 5 4
7626 645 17 0.08 9.723929601197097 15.939548168879599 6.170859453943972 2 6 4
9806 370 29 -2.0081 5.489810586654001 5.9847770163594225 12.682543382177252 -1 4 5
1679 150 10 2.1449 5.562566252006069 15.20172400217606 14.762904414134763 -2 2 0
7049 597 16 0.13 11.80229498167584 7.940589724480054 10.415931472672593 3 2 4
7377 624 20 0.26 7.096604889700677 12.87475760039506 14.633747574862994 1 2 1
7159 606 18 0.12 7.861659047090718 15.097433929737425 7.60248279067573 -1 0 -2
1681 150 12 2.1192 6.114833431655063 14.515594836822382 12.323390565552508 -2 2 0
7157 606 16 0.13 6.878050100632424 15.914997459150843 6.484620241434734 -1 0 -2
1682 150 13 1.4661 6.791441885215678 13.581979996375882 11.855637243369522 -2 2 0
10911 554 30 -1.7492 5.8717617939080125 6.306552406147956 6.534698130085627 -4 2 0
8488 150 31 -1.8561 6.804084319521565 13.562965709796206 11.840871131694966 -2 2 0
9778 365 31 -1.8561 11.921057118855746 6.330253879939174 5.753205071567487 3 -3 2
8487 150 30 -1.7492 6.119632372646855 14.46712828234285 12.342033715739296 -2 2 0
7158 606 17 0.08 6.300688483409386 15.817227362153393 8.13970084780376 -1 0 -2
7371 624 14 1.7919 7.896994105072081 13.035385108065539 15.109825301973506 1 2 1
9156 261 33 -2.1019 10.280652608957986 5.106912051129164 14.246509166261584 -1 4 0
11333 624 32 -2.1019 7.9106100681649805 13.03151025576547 15.155408925230521 1 2 1
4262 365 13 1.4661 11.9148578394993 6.326957390698313 5.757978480275708 3 -3 2
4324 370 15 1.6619 6.27615771954556 5.640461832514389 13.753822586839558 -1 4 5
6531 554 14 1.7919 6.490958235149176 7.140536901213947 5.589201623954758 -4 2 0
8489 150 32 -2.1019 6.27822025997293 15.780233513846305 11.957439948363918 -2 2 0
4326 370 17 0.08 5.5680749172520105 8.027862496554963 13.371382914990047 -1 4 5
10913 554 32 -2.1019 6.518468967327317 7.121517709876447 5.6353706304060145 -4 2 0
6529 554 12 2.1192 5.87801763465227 6.320431348222129 6.484980999230255 -4 2 0
4268 365 19 0.12 8.774371385444827 6.154411480816948 5.551655554462764 3 -3 2
1680 150 11 2.1281 5.173915692309282 14.328111927105557 13.531617113773505 -2 2 0
9808 370 31 -1.8561 7.505128185273935 6.04007360289508 11.234976924902512 -1 4 5
8486 150 29 -2.0081 5.180938080894979 14.323484540917365 13.531075520088114 -2 2 0
11459 645 32 -2.1019 11.028273155964126 14.219290081489078 8.221614601752647 2 6 4
7623 645 14 1.7919 11.020661873306128 14.216024243197227 8.2430321071447 2 6 4
6530 554 13 1.4661 6.293291401071353 6.142608504483376 7.63536088667758 -4 2 0
4322 370 13 1.4661 7.477549551257976 6.028626158642585 11.24426582518057 -1 4 5
7621 645 12 2.1192 11.683553335738418 13.822585008184896 7.117200156425352 2 6 4
11457 645 30 -1.7492 11.691670196647634 13.821589699544708 7.090880262538697 2 6 4
7629 645 20 0.26 11.113819571768342 13.420926397544038 8.745220255404229 2 6 4
11296 618 31 -1.8561 12.474097737374162 10.706851264015135 11.08285607083474 0 2 5
7298 618 13 1.4661 12.502670728119798 10.716724912762684 11.06665626360484 0 2 5
1683 150 14 1.7919 6.281590562075669 15.814509071597868 11.92416188111467 -2 2 0
4321 370 12 2.1192 6.274920080284076 6.077335306188934 11.38694799069735 -1 4 5
4261 365 12 2.1192 10.883193800453475 5.652119848701025 5.521259165001316 3 -3 2
5757 489 20 0.26 5.377708739195488 6.189603617253134 15.8722119894911 -1 -3 0
9777 365 30 -1.7492 10.87087816286525 5.693064066274707 5.4943886091482455 3 -3 2
7051 597 18 0.12 11.476557743567799 6.991582559175972 11.870127662843208 3 2 4
4329 370 20 0.26 5.8939741549578395 6.5148117810963715 9.513352910772765 -1 4 5
11167 597 28 -2.4449 12.237714982592772 7.214032680468378 11.10171199486452 3 2 4
1684 150 15 1.6619 5.345334873591875 13.007627772066618 13.824928116367056 -2 2 0
8490 150 33 -2.1019 5.34470098532863 13.011440291911507 13.842971960399339 -2 2 0
7043 597 10 2.1449 12.223522390065368 7.210497872018741 11.107070765335534 3 2 4
3013 261 12 2.1192 12.442860755154607 6.058040959109066 14.506337243400669 -1 4 0
9153 261 30 -1.7492 12.435223456497923 6.014504996831734 14.495955914105181 -1 4 0
8485 150 28 -2.4449 5.561014593102653 15.195205284537774 14.775705739664431 -2 2 0
1690 150 21 0.24 5.431176225314009 12.538670727100321 13.008974406169875 -2 2 0
7375 624 18 0.12 9.896666835728553 11.130083634728638 15.456677184070184 1 2 1
11221 606 28 -2.4449 7.194368379525876 15.941473741170455 7.539331911833666 -1 0 -2
7151 606 10 2.1449 7.192173968819705 15.954362030887712 7.527664360968104 -1 0 -2
10912 554 31 -1.8561 6.315182278867773 6.135576216963981 7.669790672282032 -4 2 0
4320 370 11 2.1281 5.47385839788336 5.988153714525066 12.681791575704727 -1 4 5
1687 150 18 0.12 6.6455984326060396 15.197445277332868 14.885888821462183 -2 2 0
1689 150 20 0.26 6.843386584218562 15.787774785446878 11.164739125265273 -2 2 0
9810 370 33 -2.1019 6.265928977615847 5.652526156441333 13.78917702637659 -1 4 5
4323 370 14 1.7919 5.4469051336003105 6.3302463557871835 10.325212765148072 -1 4 5
1686 150 17 0.08 5.311376938119891 16.224329518463996 14.481299649996448 -2 2 0
5218 444 21 0.24 10.529785512606898 15.474965969284224 15.209707148293177 0 4 3
5212 444 15 1.6619 10.437701261213194 16.163990786199324 14.569540914872249 0 4 3
10254 444 33 -2.1019 10.435474488976618 16.157926843839732 14.554043263790915 0 4 3
7627 645 18 0.12 9.94542759629449 14.64501555524195 5.0755184839106064 2 6 4
11168 597 29 -2.0081 12.561361256933353 5.8322765911104595 10.50450754993118 3 2 4
2853 247 20 0.26 16.68071318166985 5.093784515083462 8.552815567104062 6 0 -3
2347 205 18 0.12 19.38177938235203 6.8964006866842436 15.334362211106916 3 0 1
2848 247 15 1.6619 14.406796820592657 8.297081830887224 6.514885383119527 6 0 -3
3079 266 18 0.12 19.38742503437302 12.374049700162512 7.144405575567939 5 4 8
7044 597 11 2.1281 12.560501301455059 5.829876336031998 10.511703993169508 3 2 4
3077 266 16 0.13 18.940390210437393 10.863506590248456 6.298939433639851 5 4 8
1327 120 18 0.12 12.862523329667102 11.06851170285712 5.243592706669022 3 0 4
11172 597 33 -2.1019 13.47979985274863 6.146345576353806 9.52809596638094 3 2 4
7624 645 15 1.6619 12.710711035305742 14.760407276953007 5.2207517958182965 2 6 4
7052 597 19 0.12 13.061902441880692 5.256472242044264 11.291395472710638 3 2 4
7589 642 16 0.13 15.097193854681914 11.342323945809888 15.056138026371789 -5 7 3
7048 597 15 1.6619 13.454603322884248 6.12292605003114 9.523899267805088 3 2 4
3521 303 16 0.13 12.58634491108332 14.619629198719704 14.847728481330064 0 -5 -3
7630 645 21 0.24 13.477129987744338 14.490058781634847 5.702980357896911 2 6 4
1438 129 21 0.24 19.477513125674427 5.479563743101323 9.503570105137747 1 1 4
11438 642 29 -2.0081 15.703683160111517 9.473861619005248 16.14403662637183 -5 7 3
7591 642 18 0.12 14.555713842410427 9.840504246477508 14.2723042876091 -5 7 3
7050 597 17 0.08 13.051478045087624 7.683204829781377 11.635393302452725 3 2 4
2852 247 19 0.12 14.325761764843504 6.239856014647575 6.455122867319888 6 0 -3
3524 303 19 0.12 13.688513896961915 15.753415770906111 13.0727699004079 0 -5 -3
2844 247 11 2.1281 15.09251066359749 7.014567875543701 6.464390834371929 6 0 -3
6857 581 16 0.13 15.991442987337262 14.648207985232695 10.243435842110594 -5 7 2
2854 247 21 0.24 15.014347786922118 8.949873859736687 6.82755845932896 6 0 -3
7583 642 10 2.1449 14.717939093097817 10.33531370904864 15.229913961107613 -5 7 3
1433 129 16 0.13 17.799797487419287 5.132060850941754 12.099229702675064 1 1 4
3520 303 15 1.6619 14.19845337333804 14.058858141070875 12.112410798145104 0 -5 -3
9408 303 33 -2.1019 14.18187192343678 14.072969695413171 12.106871903255021 0 -5 -3
3515 303 10 2.1449 12.914420708851335 14.057730693613637 13.9732339158978 0 -5 -3
9403 303 28 -2.4449 12.93072169455403 14.060548308446394 13.959797375283836 0 -5 -3
3522 303 17 0.08 13.037644371572988 12.989667884845815 14.152697355349352 0 -5 -3
9404 303 29 -2.0081 14.045033249279344 14.756914541690133 13.307206562005513 0 -5 -3
3516 303 11 2.1281 14.025525327280844 14.741442179891044 13.297387411562712 0 -5 -3
3526 303 21 0.24 14.695462019096517 13.26633554392177 12.246356780933363 0 -5 -3
7622 645 13 1.4661 12.692455059121203 13.131817155845724 7.34830088572474 2 6 4
11458 645 31 -1.8561 12.689439501575244 13.140368898305162 7.3484406367517545 2 6 4
9155 261 32 -2.1019 12.809065619795696 7.303620497540698 14.617026272349731 -1 4 0
9406 303 31 -1.8561 16.069521470450585 13.756253001967348 14.087589694472438 0 -5 -3
3081 266 20 0.26 17.382167770167563 12.544756219206551 6.500369722376681 5 4 8
6859 581 18 0.12 16.782424337727445 13.250141973274152 9.627581119877599 -5 7 2
3518 303 13 1.4661 16.060668857956188 13.764937548205813 14.07572821304568 0 -5 -3
9068 247 29 -2.0081 15.089070681195459 7.034061242188825 6.470692285151439 6 0 -3
6862 581 21 0.24 18.03072360897813 15.058427082021355 6.786882801077805 -5 7 2
2845 247 12 2.1192 15.7691109217024 6.5862421600094265 7.827125013650625 6 0 -3
9154 261 31 -1.8561 13.146717322383724 5.130122487876392 14.089553328898388 -1 4 0
7594 642 21 0.24 17.34595316689852 8.519000957758461 15.910081151504569 -5 7 3
9070 247 31 -1.8561 16.3332695126118 7.462161694622888 8.525906187601635 6 0 -3
11072 581 29 -2.0081 16.842126395534 15.0433508892455 8.350393013931903 -5 7 2
6852 581 11 2.1281 16.830487357641804 15.035663089496477 8.350079123591492 -5 7 2
6856 581 15 1.6619 17.94193243729453 14.625669400457962 7.622281413130708 -5 7 2
11076 581 33 -2.1019 17.95627158755837 14.584903386230641 7.634683413241569 -5 7 2
7302 618 17 0.08 16.559960807102488 9.387288760395661 11.786420514860193 0 2 5
7303 618 18 0.12 15.793349638245296 8.507425375119265 10.403201741017481 0 2 5
7299 618 14 1.7919 13.374176825024803 9.626058999817397 9.205240546415324 0 2 5
11297 618 32 -2.1019 13.346193474532104 9.636054106776367 9.250405581793917 0 2 5
3073 266 12 2.1192 16.761857653585945 11.176049223228144 7.8026598453385025 5 4 8
2448 214 11 2.1281 19.38617388748129 12.219696675888127 13.145226758852951 -1 3 2
2456 214 19 0.12 18.6910235804689 12.677762862250379 12.44159684260227 -1 3 2
7301 618 16 0.13 15.096064428038057 8.47483399451706 11.89594239050534 0 2 5
11294 618 29 -2.0081 14.864194128173423 10.429626030914397 10.917394516212454 0 2 5
7297 618 12 2.1192 13.451341958010007 10.340389877960094 10.395852361971102 0 2 5
11295 618 30 -1.7492 13.439440249942402 10.359033425546588 10.44191178993466 0 2 5
7305 618 20 0.26 14.147458847547568 9.24768292971865 8.815478155919788 0 2 5
11293 618 28 -2.4449 15.635835000461547 9.184603455654312 11.276636401188044 0 2 5
7295 618 10 2.1449 15.634280366854295 9.1713038729425 11.252981631181843 0 2 5
7296 618 11 2.1281 14.881487108943254 10.424569319506627 10.91367465393202 0 2 5
7304 618 19 0.12 15.433502910545677 11.064085919072543 10.224896024684453 0 2 5
8870 214 29 -2.0081 19.40248254885895 12.23548833269222 13.15039087516761 -1 3 2
8871 214 30 -1.7492 18.5621522215338 11.609964511007023 14.164132679622755 -1 3 2
2449 214 12 2.1192 18.506513267827447 11.59188964962114 14.156551709484635 -1 3 2
2451 214 14 1.7919 17.35623626181004 11.114118345494477 13.610582850738071 -1 3 2
8873 214 32 -2.1019 17.414362279245992 11.130983565118564 13.619832260424085 -1 3 2
9184 266 31 -1.8561 15.772309925332546 10.477016016392348 8.240113023553054 5 4 8
9183 266 30 -1.7492 16.746571260626943 11.133021622038491 7.830113081791146 5 4 8
3074 266 13 1.4661 15.799336896023398 10.48896209180637 8.213781616666292 5 4 8
8872 214 31 -1.8561 18.932607350544494 11.22345985588091 15.28233869021607 -1 3 2
2450 214 13 1.4661 18.93636722787949 11.231426974153116 15.266624959323128 -1 3 2
11298 618 33 -2.1019 14.869300742000863 11.080487979881822 12.177174367359042 0 2 5
7300 618 15 1.6619 14.844581893582875 11.087126109752123 12.157330709093367 0 2 5
7306 618 21 0.24 14.04706040757222 10.9427169072987 12.643295771327923 0 2 5
2457 214 20 0.26 16.898215509623476 10.55907103891281 14.223114483338602 -1 3 2
6860 581 19 0.12 15.922451772302047 14.90494214638276 7.761391219226626 -5 7 2
2846 247 13 1.4661 16.325158682132532 7.443456626659625 8.511776704388547 6 0 -3
1436 129 19 0.12 18.425781786711045 7.623905162393932 10.292709604452414 1 1 4
9069 247 30 -1.7492 15.775648764477031 6.630122436531864 7.819168654258475 6 0 -3
3014 261 13 1.4661 13.123683821976881 5.149782559054489 14.089797214727948 -1 4 0
9182 266 29 -2.0081 18.160937782325085 11.014942656704935 8.327100636142275 5 4 8
3072 266 11 2.1281 18.18535368762057 11.022105627820853 8.32315605973484 5 4 8
3080 266 19 0.12 18.255894349145017 11.77369545179884 9.10943160031081 5 4 8
9181 266 28 -2.4449 19.286604132788206 11.288390739772455 7.2504610082005225 5 4 8
3071 266 10 2.1449 19.297313980971293 11.291620530969952 7.23568703647841 5 4 8
3075 266 14 1.7919 16.58766710086105 12.206815940524606 6.884556899026955 5 4 8
9185 266 32 -2.1019 16.586890162177205 12.15693851269102 6.911246685400667 5 4 8
6858 581 17 0.08 17.773046247749644 14.65889249604568 10.303247887615116 -5 7 2
3517 303 12 2.1192 15.323137650577825 14.757673832100892 14.040253759802406 0 -5 -3
8359 129 28 -2.4449 17.541277763834074 6.1325609526017955 11.778270191575814 1 1 4
11071 581 28 -2.4449 16.92168016765139 14.303083934658398 9.732121819727457 -5 7 2
6851 581 10 2.1449 16.90220343653941 14.327993379068149 9.737361713852012 -5 7 2
9405 303 30 -1.7492 15.327996764221202 14.73774139211529 14.029498767846556 0 -5 -3
3519 303 14 1.7919 15.095651957601286 15.532119631874728 15.125758808608037 0 -5 -3
9407 303 32 -2.1019 15.098507397234497 15.530584817369341 15.111353270841727 0 -5 -3
3525 303 20 0.26 15.73684530071844 15.259049595172367 15.763986117338344 0 -5 -3
1435 129 18 0.12 17.47756962044052 6.792652780712251 12.662340027237136 1 1 4
1427 129 10 2.1449 17.55206935002751 6.1467497776110775 11.787494054967876 1 1 4
3015 261 14 1.7919 12.813556786953317 7.344977751277055 14.614030014836853 -1 4 0
3021 261 20 0.26 13.698432077816435 7.427565074609838 14.292764174592008 -1 4 0
8360 129 29 -2.0081 18.67186151415632 6.641690785410996 10.71765870412526 1 1 4
1428 129 11 2.1281 18.659499164828876 6.650631278765864 10.724262404309204 1 1 4
11460 645 33 -2.1019 12.700515148533594 14.771376238011474 5.18084592397604 2 6 4
3076 266 15 1.6619 18.289703058909783 9.830683641274893 8.996451574941766 5 4 8
9186 266 33 -2.1019 18.327277298105887 9.832389638619679 9.013222671447346 5 4 8
3082 266 21 0.24 17.440865383026036 9.41531980937977 9.000750768971022 5 4 8
7588 642 15 1.6619 16.72794305639785 8.9146134852243 15.31460831934067 -5 7 3
11442 642 33 -2.1019 16.729960978518474 8.928875561404231 15.279137068175205 -5 7 3
2847 247 14 1.7919 16.14098748414398 5.239038173114824 7.790828049475882 6 0 -3
11437 642 28 -2.4449 14.734351671736318 10.320041876853432 15.224224425930444 -5 7 3
2458 214 21 0.24 19.60059958268808 13.790508164434872 14.32586447931251 -1 3 2
8363 129 32 -2.1019 19.783678274731116 7.668874287085631 12.432542518785684 1 1 4
1431 129 14 1.7919 19.8015068770962 7.693419849523374 12.456260571582066 1 1 4
2453 214 16 0.13 19.674533888715988 10.643082575165364 11.597831870070157 -1 3 2
8361 129 30 -1.7492 19.991445752393755 6.7347619548261966 11.488218642193477 1 1 4
1429 129 12 2.1192 19.988298442517376 6.757911829267352 11.506438903885103 1 1 4
8364 129 33 -2.1019 18.555105453989565 5.609671393848542 9.758215720496468 1 1 4
9072 247 33 -2.1019 14.386986476117581 8.31956983370158 6.4832449365737235 6 0 -3
9071 247 32 -2.1019 16.146848280200903 5.271679701829998 7.766976655451897 6 0 -3
6047 514 10 2.1449 19.54529575786267 6.899643587126727 7.055775536481233 -6 -1 1
10669 514 28 -2.4449 19.55674423318415 6.889363109241345 7.067287623879747 -6 -1 1
1434 129 17 0.08 16.53846625984097 6.270621109943175 11.406146240257627 1 1 4
7584 642 11 2.1281 15.695859766394603 9.503975656171045 16.139904993260146 -5 7 3
7054 597 21 0.24 12.939021853466635 6.53409500451534 8.84701058243177 3 2 4
6053 514 16 0.13 18.59819514581715 6.7942136341114185 6.526574298703459 -6 -1 1
6055 514 18 0.12 19.418921348408595 7.316106638719214 8.055119359674856 -6 -1 1
1469 132 16 0.13 18.606114019103018 15.290074119374653 15.801591743961616 0 0 -5
7590 642 17 0.08 13.712036698828806 10.44553293440632 15.635074326801055 -5 7 3
1432 129 15 1.6619 18.584029121789843 5.636214497624039 9.768497844492215 1 1 4
9067 247 28 -2.4449 15.857823437574428 6.909611060406962 5.164581253850297 6 0 -3
2843 247 10 2.1449 15.862043971682553 6.891246506450802 5.159111405396282 6 0 -3
2339 205 10 2.1449 19.93675418344276 7.1474543119766105 16.238324093953626 3 0 1
8815 205 28 -2.4449 19.925717098651912 7.143491035839651 16.24952253389225 3 0 1
2851 247 18 0.12 16.507937131229177 7.769210039982633 5.1689236715080895 6 0 -3
2850 247 17 0.08 16.518045610030306 6.021190342279095 5.130808991740061 6 0 -3
8826 206 33 -2.1019 21.068972139434006 15.277877818479968 6.641833349581604 3 -3 0
7665 648 20 0.26 25.93050278183241 10.63721614524853 15.423286650346569 1 1 1
7528 637 15 1.6619 25.641330108503013 16.099437586610474 15.736379868707374 -1 -7 0
3232 279 15 1.6619 27.43391835774302 5.613652777131566 13.079448615839278 -2 -4 2
11412 637 33 -2.1019 25.658354595428502 16.118561221632913 15.753657283267202 -1 -7 0
2356 206 15 1.6619 21.088404626809933 15.291756198517394 6.647289991214093 3 -3 0
5889 500 20 0.26 27.11137236403158 8.50268060117311 6.394785355741734 4 -2 -4
7710 652 17 0.08 24.832045776608183 13.34121711401958 11.51975770215629 0 -1 3
4392 376 11 2.1281 26.775121945358922 16.077432238279766 5.210692573402806 -5 -3 -1
4758 406 17 0.08 24.365982713122023 7.6413934348475046 15.170851467797796 -1 1 -2
7704 652 11 2.1281 24.502843659718724 11.792122039304635 9.977304650256423 0 -1 3
11498 652 29 -2.0081 24.495839954295086 11.780695061178719 9.973510880156192 0 -1 3
2429 212 16 0.13 22.960758989061155 9.157296384061787 7.433800999543671 -1 1 2
2432 212 19 0.12 24.13460908960598 6.751061283230744 5.955542263051726 -1 1 2
4751 406 10 2.1449 25.1589507402245 7.471616413482711 14.442493169949913 -1 1 -2
7534 637 21 0.24 25.939931922676294 15.611520017361652 14.984157332454286 -1 -7 0
2345 205 16 0.13 20.75057123514874 7.787728711114434 15.897949551324873 3 0 1
6052 514 15 1.6619 21.33387043082523 5.588562334609802 7.755055450858232 -6 -1 1
11477 648 32 -2.1019 26.62382524292556 11.090257884934907 15.939187473299448 1 1 1
7711 652 18 0.12 25.737542260288798 13.543569553117674 10.059267685646123 0 -1 3
2353 206 12 2.1192 22.699080480532402 16.23430143873239 8.20518660988967 3 -3 0
10674 514 33 -2.1019 21.346098900228487 5.608946087389647 7.784173641193139 -6 -1 1
2362 206 21 0.24 21.931394315344704 15.148480442989943 6.24494270542681 3 -3 0
1437 129 20 0.26 20.60549552441813 7.996820601894187 12.84941621829214 1 1 4
7659 648 14 1.7919 26.628682413950965 11.049228721522018 15.908949048358199 1 1 1
7714 652 21 0.24 24.65271906912615 10.337874145898384 11.086958741706423 0 -1 3
2455 214 18 0.12 20.834312421642124 11.902013604980564 11.560092269492161 -1 3 2
7114 602 21 0.24 21.63056930996371 5.958724733696457 13.847157671198222 4 1 9
5888 500 19 0.12 26.82417479593061 6.4531033382742855 6.48316542796161 4 -2 -4
7108 602 15 1.6619 22.092415525190916 5.317652703659204 14.36559680766368 4 1 9
3078 266 17 0.08 20.27761457589154 10.866915012443698 7.451900943083718 5 4 8
8857 212 28 -2.4449 23.429381750544277 8.17315395551455 7.520646157803718 -1 1 2
11202 602 33 -2.1019 22.10570386018393 5.309011706204459 14.385490438385165 4 1 9
4755 406 14 1.7919 23.54652173409219 7.303555136264934 11.507848222991786 -1 1 -2
2430 212 17 0.08 24.154087878106616 8.239438507152606 8.304629165751818 -1 1 2
7707 652 14 1.7919 25.654729972070385 11.457060249459907 7.965830716858416 0 -1 3
2359 206 18 0.12 22.15232870663528 13.653185448117357 8.351024525091198 3 -3 0
2352 206 11 2.1281 21.295114145169396 15.666629190112529 8.008777957464277 3 -3 0
10585 500 28 -2.4449 26.886396972260798 6.100033346843408 8.795904451090394 4 -2 -4
2351 206 10 2.1449 21.402787883422274 14.321339837438549 8.775167859556825 3 -3 0
9846 376 33 -2.1019 27.15482978800361 14.885594375573602 5.895849324134109 -5 -3 -1
4752 406 11 2.1281 24.83377376901629 8.377021749222715 13.248655676272161 -1 1 -2
10024 406 31 -1.8561 22.385992523842457 8.067572583237707 13.333203926341907 -1 1 -2
7525 637 12 2.1192 23.73955961618378 15.204454701541232 14.48943878602443 -1 -7 0
8823 206 30 -1.7492 22.70222983671421 16.214807969468527 8.194658926718779 3 -3 0
4757 406 16 0.13 25.302754850684487 6.41281109615308 14.227063757960165 -1 1 -2
2454 214 17 0.08 21.004680238462708 10.613635345923555 12.749963210041356 -1 3 2
2424 212 11 2.1281 24.118699378643555 7.8107004209272395 6.210638185696291 -1 1 2
4396 376 15 1.6619 27.12278697813245 14.900998489649274 5.877629793247176 -5 -3 -1
11502 652 33 -2.1019 23.89888794756713 10.912683399403013 10.961079210529613 0 -1 3
7705 652 12 2.1192 25.39098024074368 10.86967548877285 9.125334550836218 0 -1 3
5887 500 18 0.12 26.19300327740963 6.963352933520501 8.835230040334189 4 -2 -4
2358 206 17 0.08 21.60789733655229 14.56550920443384 9.81747616003173 3 -3 0
2431 212 18 0.12 22.653412710782895 7.432379500416348 7.843761596865555 -1 1 2
10026 406 33 -2.1019 24.721225047042438 9.629166475597174 13.901877189008694 -1 1 -2
8874 214 33 -2.1019 20.21529185174513 13.327934018663498 13.753346576587868 -1 3 2
2452 214 15 1.6619 20.17236558595918 13.300837054369355 13.754597948432082 -1 3 2
8869 214 28 -2.4449 20.290709561241947 11.272472172908333 12.254051565396006 -1 3 2
9842 376 29 -2.0081 26.7743426880483 16.056585828061227 5.219349256404883 -5 -3 -1
2357 206 16 0.13 20.469909633518565 13.809908538736508 8.53779118216668 3 -3 0
5879 500 10 2.1449 26.89461081704655 6.130134723956986 8.794965983940951 4 -2 -4
2447 214 10 2.1449 20.285225434955915 11.26439931815026 12.252963688443465 -1 3 2
4762 406 21 0.24 24.282967814157352 10.229205865060736 13.270080660570784 -1 1 -2
8821 206 28 -2.4449 21.406135413917127 14.306509987762173 8.77468985235519 3 -3 0
4753 406 12 2.1192 23.439948576092167 7.994420823678221 12.694563646096578 -1 1 -2
10021 406 28 -2.4449 25.158146507386487 7.495362804985917 14.459246267440058 -1 1 -2
11410 637 31 -1.8561 24.53282933601448 15.083788439676807 13.545157592717457 -1 -7 0
8362 129 31 -1.8561 21.058537567259233 6.56369281137211 10.941330144383517 1 1 4
4756 406 15 1.6619 24.704470475163976 9.618937408266463 13.855711226112122 -1 1 -2
4760 406 19 0.12 25.615973910383403 8.464043534994588 12.494521396007777 -1 1 -2
11409 637 30 -1.7492 23.76562606854519 15.226187613897874 14.48746016574466 -1 -7 0
7713 652 20 0.26 26.376378354707988 10.998576281822409 7.563255507180361 0 -1 3
6054 514 17 0.08 20.148241007302424 7.611310315885494 6.491771478841827 -6 -1 1
7533 637 20 0.26 22.676519779023252 13.925961330035632 13.830371011662452 -1 -7 0
7173 607 20 0.26 23.836850900894106 9.502951798906608 15.831271689651961 3 3 -2
8858 212 29 -2.0081 24.150834138448833 7.817465308160596 6.205053074081811 -1 1 2
11501 652 32 -2.1019 25.65288164471059 11.463253406539163 7.991399068212885 0 -1 3
5886 500 17 0.08 26.35038465984065 5.213814424371054 9.02373580759385 4 -2 -4
7524 637 11 2.1281 24.23537856792948 15.722504668798296 15.844007055012403 -1 -7 0
4759 406 18 0.12 26.065356544353122 7.871223777163628 14.89728017186052 -1 1 -2
4754 406 13 1.4661 22.414746303159767 8.068820009120103 13.330412944610801 -1 1 -2
7526 637 13 1.4661 24.52846944015032 15.085082410284873 13.552937673480013 -1 -7 0
7712 652 19 0.12 23.673933493555943 12.215356109075092 9.409911339717695 0 -1 3
10023 406 30 -1.7492 23.427480653288253 8.011129548074543 12.738334681865187 -1 1 -2
11411 637 32 -2.1019 22.672187784263567 14.505361841722452 14.616858667118628 -1 -7 0
11499 652 30 -1.7492 25.383982627050088 10.871678812922003 9.150053355716826 0 -1 3
1430 129 13 1.4661 21.04993260918578 6.566334922929034 10.933368008930092 1 1 4
7527 637 14 1.7919 22.648783404688132 14.470378235649479 14.602324700441866 -1 -7 0
2423 212 10 2.1449 23.397031511510498 8.162504637308212 7.5242195468494275 -1 1 2
8822 206 29 -2.0081 21.312815751173755 15.66951712217741 8.00665175544795 3 -3 0