LAMMPS data file via write_data, version 29 Oct 2020, timestep = 30000000

13200 atoms
33 atom types
12400 bonds
28 bond types
14200 angles
25 angle types
17600 dihedrals
28 dihedral types

4.398001546200737 50.60199845380981 xlo xhi
4.398001546200737 50.60199845380981 ylo yhi
4.398001546200737 50.60199845380981 zlo zhi

Masses

1 13.607
2 11.611
3 1.008
4 11.611
5 11.611
6 1.008
7 15.599
8 1.008
9 35.05300000000003
10 11.611
11 11.611
12 11.611
13 15.599
14 15.599
15 15.599
16 1.008
17 1.008
18 1.008
19 1.008
20 1.008
21 1.008
22 0.4000000000000006
23 0.4
24 0.4
25 0.4
26 0.4
27 0.3999999999999965
28 0.4
29 0.4
30 0.4
31 0.4
32 0.4
33 0.4

Bond Coeffs # harmonic

1 382.003 1.448
2 339.986 1.09
3 267.925 1.529
4 320.005 1.41
5 553 0.945
6 267.997 1.529
7 340.01 1.09
8 340.01 1.09
9 340.01 1.09
10 316.993 1.522
11 320.005 1.41
12 340.01 1.09
13 570.005 1.229
14 450 1.364
15 553.011 0.945
16 553.011 0.945
17 500 0
18 500 0
19 500 0
20 500 0
21 500 0
22 500 0
23 500 0
24 500 0
25 500 0
26 500 0
27 500 0
28 500 0

Angle Coeffs # harmonic

1 51.8045 107.2
2 35.0024 109.5
3 32.9947 107.8
4 56.2022 109.5
5 37.5 110.7
6 50 109.5
7 35.0024 109.5
8 54.9952 108.5
9 37.5 110.7
10 37.5 110.7
11 37.5 110.7
12 33.0067 107.8
13 33.0067 107.8
14 33.0067 107.8
15 63.0019 111.1
16 50 109.5
17 37.5 110.7
18 51.6491 110.5
19 34.9904 109.5
20 34.9904 109.5
21 79.9952 120.4
22 70.0048 108
23 79.9952 121
24 34.9904 113
25 54.9952 108.5

Dihedral Coeffs # opls

1 0 0 0.55999 0
2 0.415989 -0.128011 0.695005 0
3 -1.013 -0.709011 0.472992 0
4 -10.5286 -1.29897 0 0
5 0 0 0.3 0
6 0 0 0.467997 0
7 -0.355999 -0.173996 0.491993 0
8 0 0 0.45 0
9 0 0 -0.1 0
10 0 0 0.467997 0
11 0 0 0.3 0
12 0 0 -0.1 0
13 0 0 0.467997 0
14 0 0 0.3 0
15 0 0 -0.1 0
16 0 0 0.467997 0
17 0 0 0.3 0
18 0 0 0 0
19 1 0.546009 0.45 0
20 0 0 0 0
21 9.50801 0 0 0
22 0 0 0 0
23 0 0 0 0
24 -0.355999 -0.173996 0.491993 0
25 -0.355999 -0.173996 0.491993 0
26 0 0 0.352008 0
27 1.5 5.5 0 0
28 0 5.5 0 0

Atoms # full

8794 767 11 2.1281 11.27995572188548 7.0377323510577465 12.20786275349828 1 1 1
12998 767 29 -2.0081 11.282378310955744 7.0553844902811 12.199275815605137 1 1 1
8793 767 10 2.1449 9.909168746282758 7.721955101588288 12.117184830983426 1 1 1
12997 767 28 -2.4449 9.905577120770577 7.732838062180218 12.130459823731854 1 1 1
5830 520 11 2.1281 8.62042377006484 6.19324085966465 8.907527976573215 4 1 2
8799 767 16 0.13 9.872289731042041 8.53930312805306 11.396995444573927 1 1 1
8800 767 17 0.08 9.53799031881561 8.144261053009563 13.050984572093142 1 1 1
4756 430 17 0.08 10.648139457173219 11.220247978343911 11.595940950831173 2 1 -3
5832 520 13 1.4661 6.412882106709186 6.651337929516428 9.65905652290769 4 1 2
5838 520 19 0.12 9.650850430880114 6.460882213257914 9.141388517447101 4 1 2
6907 609 20 0.26 7.718661221286675 13.645300701560785 7.555634482962923 4 0 -1
12053 609 32 -2.1019 7.601002404633178 12.735410866661072 7.211990472889056 4 0 -1
6901 609 14 1.7919 7.620548892867116 12.779104616107643 7.190800930775042 4 0 -1
4755 430 16 0.13 11.90158020527906 9.997119044328343 11.490912123505685 2 1 -3
6899 609 12 2.1192 7.096090259684711 11.870560043091642 8.016901919374604 4 0 -1
6900 609 13 1.4661 6.686135209194358 10.822664193847592 7.560773862468528 4 0 -1
12051 609 30 -1.7492 7.076402610055846 11.802820083066088 8.013173955902058 4 0 -1
12052 609 31 -1.8561 6.657217180408026 10.777209284129514 7.526822391419757 4 0 -1
11519 520 32 -2.1019 7.712464329706072 8.408556380685857 9.407932601104815 4 1 2
5839 520 20 0.26 6.929168842799479 8.968680660930188 9.514878644988302 4 1 2
11516 520 29 -2.0081 8.603765320205623 6.196931785853721 8.916493011386052 4 1 2
5833 520 14 1.7919 7.712466513044985 8.451215108261229 9.406754452543476 4 1 2
11517 520 30 -1.7492 7.511761733086292 7.070820781491484 9.43843892244007 4 1 2
12049 609 28 -2.4449 8.137804935791388 12.08943165663435 10.216306562093445 4 0 -1
6897 609 10 2.1449 8.165657027617064 12.088985705475398 10.215303472497983 4 0 -1
6904 609 17 0.08 8.567007406877067 11.077482760458743 10.15313609720191 4 0 -1
6903 609 16 0.13 8.980834714348614 12.754819239877655 9.932018650165366 4 0 -1
8801 767 18 0.12 9.259035454319907 6.903460406226435 11.808202842636929 1 1 1
12999 767 30 -1.7492 11.728285161025509 6.492232736576509 10.857501423009946 1 1 1
8795 767 12 2.1192 11.727647910991392 6.444452264475171 10.867014893392714 1 1 1
5829 520 10 2.1449 8.315416273240661 5.967508190538398 7.417382999788112 4 1 2
6403 567 20 0.26 6.35666118669758 9.204803203573762 6.571566644716162 0 1 -2
11515 520 28 -2.4449 8.327263864006543 5.951783958200583 7.4167161084096564 4 1 2
13000 767 31 -1.8561 12.075236199136333 7.124714772078172 9.85765683152666 1 1 1
8796 767 13 1.4661 12.073442185512151 7.125482889734513 9.896454315781314 1 1 1
5831 520 12 2.1192 7.531814468656174 7.107631247232408 9.441545012725163 4 1 2
5834 520 15 1.6619 8.480100468029839 4.848193922036594 9.40936905738765 4 1 2
5836 520 17 0.08 7.292951278326054 5.615688953591697 7.280024597177358 4 1 2
11520 520 33 -2.1019 8.468131313797697 4.836748741625562 9.428419298667714 4 1 2
10975 430 28 -2.4449 11.684805692069856 11.071481849554129 11.377768069818483 2 1 -3
4749 430 10 2.1449 11.705190897184915 11.063625694469366 11.381006693214974 2 1 -3
11518 520 31 -1.8561 6.386623690307621 6.653146309071129 9.667560218831216 4 1 2
5837 520 18 0.12 9.092737855248817 5.287702326320166 7.068494182039906 4 1 2
9159 797 16 0.13 11.867256302978973 12.76079473948842 5.569786351279127 -6 3 0
10888 415 31 -1.8561 7.825845180322767 15.670666206573793 7.294533466318186 2 1 3
6905 609 18 0.12 7.892312966713149 12.351139742411114 11.237387691744575 4 0 -1
6902 609 15 1.6619 5.864673930683084 11.635399349902752 10.049557228022962 4 0 -1
4758 430 19 0.12 11.95949922832559 12.394050994727 9.767699494138277 2 1 -3
7383 649 16 0.13 5.185377474975285 5.05922844093617 5.108187460161566 -7 0 -2
11842 574 31 -1.8561 11.969614840093058 14.944145080427726 11.358767779520717 3 0 1
6397 567 14 1.7919 5.940298434927778 8.35986802432831 6.647401751393973 0 1 -2
10879 414 28 -2.4449 11.404185290442733 11.403403181271315 15.692562171066498 -2 1 -2
6480 574 13 1.4661 11.958990782048867 14.944731274310653 11.369850356867529 3 0 1
6908 609 21 0.24 5.443199686603231 12.134656587353437 10.732289698725287 4 0 -1
12050 609 29 -2.0081 6.898745718533424 12.361011390445675 9.396364714673368 4 0 -1
6488 574 21 0.24 11.37222420614945 13.700586442363212 13.247245623467485 3 0 1
5835 520 16 0.13 8.39366643362775 6.836152208287547 6.763604092717583 4 1 2
11801 567 32 -2.1019 5.91429207987563 8.335788076401846 6.627571057247589 0 1 -2
323 16 3 0.13 6.5277862038649594 4.978096982618359 13.333385412051497 0 0 1
10980 430 33 -2.1019 11.470933540718452 10.56696810225906 9.129185685610436 2 1 -3
4754 430 15 1.6619 11.491426700238636 10.570009178967274 9.12874603182326 2 1 -3
4760 430 21 0.24 11.905753618070813 10.64918168975104 8.283121682718384 2 1 -3
6483 574 16 0.13 8.886674897801367 15.120931978065903 14.439173436644543 3 0 1
10883 414 32 -2.1019 11.408104198714947 8.043938990419187 15.400259383191415 -2 1 -2
6898 609 11 2.1281 6.902479179039103 12.369906247722035 9.438851566955197 4 0 -1
6402 567 19 0.12 5.490209353719489 10.324414248531271 5.155097887063927 0 1 -2
4572 415 13 1.4661 7.83375882180202 15.694138226620257 7.297455392199265 2 1 3
4561 414 14 1.7919 11.433165599427806 8.054609733262243 15.362058457812207 -2 1 -2
4566 414 19 0.12 11.050466994793108 9.905267577434843 13.946002391259695 -2 1 -2
4557 414 10 2.1449 11.41745750929686 11.410601014356736 15.691341379524287 -2 1 -2
4562 414 15 1.6619 9.349198783781768 10.802574089450191 14.651247115671262 -2 1 -2
8797 767 14 1.7919 11.0207401660443 5.306821102093448 10.789146509859695 1 1 1
13001 767 32 -2.1019 11.03626869142766 5.354666406360555 10.747064319246762 1 1 1
325 16 3 0.13 5.751130702790898 4.791281424762135 11.849686836540599 0 0 1
8802 767 19 0.12 11.240942149643143 6.287522263767528 12.997643047079988 1 1 1
6395 567 12 2.1192 4.876032615124011 8.496648559813977 5.868683018856747 0 1 -2
5395 483 20 0.26 4.671729934097904 6.836202160798038 9.9625227440395 2 0 -1
6478 574 11 2.1281 10.035655807340477 14.877207444229793 12.62940529560815 3 0 1
10881 414 30 -1.7492 10.439418187521246 8.97268965004297 15.757179582142012 -2 1 -2
6399 567 16 0.13 4.51520544814322 10.405305278103963 7.755867182100252 0 1 -2
6479 574 12 2.1192 11.109958613172596 15.638534623152962 11.905078973019055 3 0 1
11798 567 29 -2.0081 4.5638227451234235 9.930803276716377 5.580661539916741 0 1 -2
6906 609 19 0.12 6.569562637411437 13.402992423974199 9.338880457949667 4 0 -1
6394 567 11 2.1281 4.564440088344921 9.952620769063499 5.594207930559645 0 1 -2
10884 414 33 -2.1019 9.364564571345086 10.823052921529888 14.653553473859114 -2 1 -2
11799 567 30 -1.7492 4.84395194870321 8.489022013660406 5.855649592357744 0 1 -2
11840 574 29 -2.0081 10.04845654910358 14.873939343471987 12.62565773900229 3 0 1
4559 414 12 2.1192 10.472637209577526 8.963335957026713 15.74015504049533 -2 1 -2
4563 414 16 0.13 11.551944777947988 12.278409422712981 15.045652101549251 -2 1 -2
4568 414 21 0.24 8.813387191168655 10.047316721474708 14.462828783078793 -2 1 -2
8803 767 20 0.26 10.760049781772366 4.97229460878979 11.633629521166265 1 1 1
12054 609 33 -2.1019 5.881081744129794 11.623015251975554 10.055902968013315 4 0 -1
6482 574 15 1.6619 10.461150640571734 13.857563385006845 13.443010781969301 3 0 1
11844 574 33 -2.1019 10.449599953166349 13.860358242571788 13.46467132184264 3 0 1
10890 415 33 -2.1019 8.273073108951154 15.566999965082957 9.951294969102412 2 1 3
4574 415 15 1.6619 8.267131098272204 15.59025666134237 9.9174884235783 2 1 3
11839 574 28 -2.4449 9.47747578443702 15.754269168290653 13.795584325852456 3 0 1
6477 574 10 2.1449 9.473192922568918 15.757505355498518 13.776710728901683 3 0 1
4558 414 11 2.1281 10.60297158877918 10.226881755450991 14.886425763426695 -2 1 -2
10880 414 29 -2.0081 10.600919047996124 10.195673711896044 14.89406642948617 -2 1 -2
6486 574 19 0.12 9.274720151715552 14.621513201646078 11.892062552733893 3 0 1
4567 414 20 0.26 12.027734730368401 8.541206969763998 14.811848189932258 -2 1 -2
11841 574 30 -1.7492 11.125543623201821 15.611630083883911 11.917479144058085 3 0 1
10115 131 24 -2.2372 15.285461576601751 4.632690192695964 13.921218492445616 1 1 1
4750 430 11 2.1281 12.18097225030443 11.363069099986111 10.043598548007756 2 1 -3
10976 430 29 -2.0081 12.184987892380036 11.354272444977475 10.041084755037584 2 1 -3
5856 522 13 1.4661 14.44253420905075 9.76998366136337 15.458854281970972 5 -1 -3
9162 797 19 0.12 14.620948439449233 12.104907237964476 4.411615367605053 -6 3 0
2736 131 3 0.13 13.292411605575499 4.521679502190275 15.342294395748377 1 1 1
4757 430 18 0.12 12.303611570925446 11.543605432750393 12.155355707540572 2 1 -3
2748 131 6 0.06 13.493824868557718 4.406172007015805 12.847839780561653 1 1 1
5588 499 21 0.24 12.526244813235136 4.788446329011434 4.820302894697057 4 0 -2
13177 797 28 -2.4449 12.500787727387065 11.947681490627588 5.1868178216216005 -6 3 0
9153 797 10 2.1449 12.500427898426095 11.969596671489224 5.168296904019164 -6 3 0
2733 131 2 2.2749 13.619976255625476 5.558714172797774 15.269213736866657 1 1 1
9160 797 17 0.08 12.306583816139133 10.918704232636246 5.383080297814325 -6 3 0
4751 430 12 2.1192 13.66064386652504 11.100788692255332 9.937828484458693 2 1 -3
10977 430 30 -1.7492 13.637691903494193 11.076564862274504 9.934278325429416 2 1 -3
4752 430 13 1.4661 14.122521407691346 9.972765053234372 10.06359239926563 2 1 -3
10978 430 31 -1.8561 14.142887888493346 9.977875349073694 10.056798311811326 2 1 -3
12224 638 29 -2.0081 17.302222085627964 15.473686232780175 9.124662781847382 1 -1 3
7252 638 17 0.08 18.974232508633605 14.052601054127257 8.837581504513574 1 -1 3
2322 111 3 0.13 12.35731192887489 8.241633547251118 6.91550865636887 0 0 0
7246 638 11 2.1281 17.306399490013177 15.465676437947723 9.117842078772401 1 -1 3
8798 767 15 1.6619 12.22892334516234 8.012564639324903 12.693478315670305 1 1 1
13002 767 33 -2.1019 12.200790494499707 8.055686787179312 12.73906245214119 1 1 1
4608 418 13 1.4661 18.805844089287934 5.87940081553814 14.259617406493005 -2 0 -5
5857 522 14 1.7919 16.192282018763944 10.880236303105022 14.791360885109194 5 -1 -3
7249 638 14 1.7919 14.865993862544416 15.368294520297791 9.567495616538867 1 -1 3
12227 638 32 -2.1019 14.892687802852228 15.37456239223781 9.577334691964586 1 -1 3
11531 522 32 -2.1019 16.18191584438649 10.854508922566719 14.8283305954301 5 -1 -3
7253 638 18 0.12 17.30419412732426 13.329235979954234 9.21390361272271 1 -1 3
2318 111 3 0.13 15.939963504383984 9.118324508198178 6.302029711744893 0 0 0
13180 797 31 -1.8561 14.689792576241205 14.310646896303293 6.414127131822503 -6 3 0
9156 797 13 1.4661 14.689595793033916 14.301751196431253 6.416986171912316 -6 3 0
13179 797 30 -1.7492 14.182220165171852 13.741799574366937 5.485166737528577 -6 3 0
9155 797 12 2.1192 14.180945559254779 13.764542014748065 5.462139922228909 -6 3 0
10905 418 30 -1.7492 19.579567129763905 5.143567378125212 14.800831160408551 -2 0 -5
2316 111 3 0.13 14.577873257913534 7.968839679853061 4.65152776636143 0 0 0
9164 797 21 0.24 15.368912398897026 12.02941985962227 6.621359636969387 -6 3 0
9158 797 15 1.6619 14.538667185455685 11.607309627450341 6.461542637759191 -6 3 0
13182 797 33 -2.1019 14.514897930403357 11.560960480846063 6.476145941722455 -6 3 0
12223 638 28 -2.4449 18.056949958332403 14.113217522883803 9.396826203825196 1 -1 3
9154 797 11 2.1281 14.019808178520824 12.282788234156703 5.303285334440139 -6 3 0
13178 797 29 -2.0081 14.021555880637582 12.285480611253805 5.318490216367275 -6 3 0
8804 767 21 0.24 13.081756722454683 7.617641547303169 12.594834156640875 1 1 1
12915 753 30 -1.7492 14.755315523276307 14.221500065170783 14.083112879046828 1 4 -1
2320 111 3 0.13 15.736871735002003 8.61927514644865 7.988599930557446 0 0 0
2319 111 3 0.13 16.590765104593217 7.686286071257271 6.772166673815307 0 0 0
8635 753 20 0.26 15.744480901964012 13.193683818301714 12.752991895536288 1 4 -1
2323 111 3 0.13 13.463000190972059 9.335537163560797 6.215173745083083 0 0 0
8629 753 14 1.7919 15.3144022482249 14.033037946822878 12.812422300046782 1 4 -1
2330 111 7 1.4189 15.079820680008629 4.408602460676797 6.683170142460218 0 0 0
9977 111 26 -2.1019 15.006477880156313 4.415392815036861 6.653651272796523 0 0 0
2317 111 3 0.13 13.27543541273746 6.979115005755517 5.142029288137618 0 0 0
2313 111 2 2.2749 14.31461191580759 7.203958679981084 5.382104905603095 0 0 0
9973 111 23 -2.4449 14.304344737266685 7.227202640227018 5.391274775820514 0 0 0
2315 111 3 0.13 14.854844840619904 6.330254076311009 5.017586695771524 0 0 0
2314 111 2 2.2749 13.365376328868713 8.635502161215927 7.044939089460788 0 0 0
9974 111 23 -2.4449 13.36616196448588 8.619533556733028 7.026596404543794 0 0 0
4753 430 14 1.7919 14.310531124850653 12.090252085897019 10.567320176316397 2 1 -3
2739 131 3 0.13 16.70262615221666 6.749837635585161 14.914415189050631 1 1 1
9972 111 23 -2.4449 15.682333875183868 8.271451069863861 6.945514543351659 0 0 0
2327 111 3 0.13 13.480058659124195 5.897899514398653 7.442449093531315 0 0 0
9976 111 25 -2.3074 15.371049912933612 5.310004001525428 7.667587467080933 0 0 0
2312 111 2 2.2749 15.694677167417547 8.27972022283463 6.953697524525572 0 0 0
2750 131 7 1.4189 14.3985442633572 6.022217959742355 12.076348170154933 1 1 1
2738 131 3 0.13 15.318088489828426 7.4296490785147 14.104921296083615 1 1 1
10112 131 23 -2.4449 15.616596855644875 6.827884064942923 14.992833138717453 1 1 1
2732 131 2 2.2749 15.617407754831497 6.836121812730054 14.968761104271357 1 1 1
10741 341 27 -3.6401 16.71896239510199 6.549396956323578 10.357293492753959 0 1 1
4341 341 9 2.6401 16.709623563065676 6.555058486878441 10.364462697871836 0 1 1
2751 131 8 0.418 15.207855195557222 6.12148688561432 11.59866464752013 1 1 1
9971 111 22 -1.9073 14.433053642674915 7.668206764317828 6.773541526021497 0 0 0
2311 111 1 2.0273 14.429167871382825 7.666279993331691 6.770716623725025 0 0 0
10117 131 26 -2.1019 14.351691201614443 6.039474513705741 12.10297517453258 1 1 1
2326 111 5 2.5824 15.391638192804518 5.317432658714111 7.70474545864581 0 0 0
2324 111 4 2.0672 14.333979643714855 6.519338318030954 7.712096534929885 0 0 0
9975 111 24 -2.2372 14.336519594418917 6.514847136857222 7.67278338245088 0 0 0
2325 111 3 0.13 14.149165540027806 6.932762798438294 8.703571874984272 0 0 0
2321 111 3 0.13 13.403611826170316 9.077605717883136 8.040521242931897 0 0 0
2329 111 6 0.06 16.330599463430204 5.86581031128218 7.6290185461875435 0 0 0
8185 716 14 1.7919 16.455307297258905 9.263144091532178 11.899457156934728 5 2 4
12695 716 32 -2.1019 16.480042285276188 9.324846799815372 11.91165662163962 5 2 4
12693 716 30 -1.7492 16.97038785964778 10.301601226577976 11.100746319582829 5 2 4
8183 716 12 2.1192 16.955357286914772 10.240944918119109 11.105176776267212 5 2 4
12692 716 29 -2.0081 18.10001474345681 9.777153888901172 10.205769919665709 5 2 4
8182 716 11 2.1281 18.116488932897205 9.750566334962723 10.206564992545532 5 2 4
10979 430 32 -2.1019 14.286694728147532 12.07657019998741 10.560884936843113 2 1 -3
2731 131 1 2.0273 15.061604109325291 5.470694818803522 15.078421555233898 1 1 1
10111 131 22 -1.9073 15.05706696517019 5.475989362797699 15.083671605635372 1 1 1
8184 716 13 1.4661 16.843412303616383 11.37481041113872 11.481808301612148 5 2 4
12694 716 31 -1.8561 16.83546552356508 11.41797297092003 11.499114219379345 5 2 4
2328 111 6 0.06 15.30466372956703 4.737353042437528 8.623459325611105 0 0 0
8181 716 10 2.1449 19.29381920397455 9.397792098422991 11.187056210655332 5 2 4
12691 716 28 -2.4449 19.290115102267347 9.401307181236287 11.167456962571029 5 2 4
8191 716 20 0.26 16.55688328077531 8.437259403274926 11.451564596539663 5 2 4
4759 430 20 0.26 15.172498173594702 11.788055056700461 10.809625655101174 2 1 -3
8188 716 17 0.08 19.671306903064718 10.30606924216492 11.656778619802052 5 2 4
8190 716 19 0.12 17.71875484852572 8.96400472724963 9.565312520573636 5 2 4
12917 753 32 -2.1019 15.299582810238835 14.039218104789654 12.84262964333777 1 4 -1
8627 753 12 2.1192 14.76284628988942 14.224966848180408 14.047753219210447 1 4 -1
8187 716 16 0.13 19.01961932107968 8.634984085777766 11.915771652507392 5 2 4
12916 753 31 -1.8561 14.769109121296124 13.314024644251091 14.943108364290872 1 4 -1
8628 753 13 1.4661 14.769839260342584 13.334288089067252 14.931175571011135 1 4 -1
8782 766 11 2.1281 19.532525187215484 13.12859611494528 4.633437196733876 -2 0 1
12992 766 29 -2.0081 19.51754940696462 13.129395421659275 4.621516876060025 -2 0 1
8788 766 17 0.08 19.357406570697137 15.062507261276295 5.643082284062603 -2 0 1
8784 766 13 1.4661 17.7353991144985 11.98120504053909 5.6999852022729565 -2 0 1
12994 766 31 -1.8561 17.720229339595562 11.973029553129267 5.704192426466641 -2 0 1
5863 522 20 0.26 15.780339164215043 10.762648530441606 13.949050971073738 5 -1 -3
8186 716 15 1.6619 18.564801259203865 10.78373582659648 9.396794360444938 5 2 4
12696 716 33 -2.1019 18.589686149781123 10.782308794519384 9.375048516620833 5 2 4
8192 716 21 0.24 18.641536823701365 11.60574018550197 9.856626727428498 5 2 4
8783 766 12 2.1192 18.890265154654887 12.288009160941858 5.7453030746625195 -2 0 1
12993 766 30 -1.7492 18.861983493471303 12.305148815643753 5.716647964198535 -2 0 1
7245 638 10 2.1449 18.043677811608305 14.107482273957308 9.402513834084866 1 -1 3
8626 753 11 2.1281 14.243877398397402 15.632509452174443 14.283513351217351 1 4 -1
10906 418 31 -1.8561 18.779261578621547 5.89427156607115 14.255922795576954 -2 0 -5
12995 766 32 -2.1019 19.725024503799332 12.01171518896551 6.72674247071857 -2 0 1
8791 766 20 0.26 19.458070488710938 11.480634556355524 7.504388474323559 -2 0 1
12914 753 29 -2.0081 14.234374757068128 15.61356216611991 14.282307233299449 1 4 -1
2740 131 3 0.13 15.303171134215328 7.40182823692094 15.845875880889087 1 1 1
8785 766 14 1.7919 19.74326789043973 11.991535963189714 6.762324098326311 -2 0 1
2744 131 4 2.0672 15.298221983772773 4.5934144510786385 13.90288823527813 1 1 1
7251 638 16 0.13 18.271086138667442 14.066183058605437 10.467727210080124 1 -1 3
10113 131 23 -2.4449 13.632029311994744 5.568841210029063 15.29301044507601 1 1 1
2737 131 3 0.13 13.059128457783963 6.1279325145679095 14.5279142680532 1 1 1
4607 418 12 2.1192 19.595916360570943 5.101133420621561 14.806315516129883 -2 0 -5
2950 141 3 0.13 19.151893559415228 6.066725733097293 11.6673589733953 1 0 1
2948 141 3 0.13 19.5283382082768 6.744850350804141 10.129424102208532 1 0 1
8630 753 15 1.6619 13.473417850116276 15.575725761462179 15.50249129659507 1 4 -1
5044 454 17 0.08 19.695933211939703 7.62628143573979 5.793263844288319 -3 0 -1
10116 131 25 -2.3074 14.484376754494253 4.794085549040857 12.62093305631433 1 1 1
2745 131 3 0.13 16.342998499400636 4.7572396419738 13.638879457001918 1 1 1
7254 638 19 0.12 16.91792180652981 15.466441541875547 8.099429561751606 1 -1 3
12918 753 33 -2.1019 13.46137331012012 15.603524980903606 15.513139562343898 1 4 -1
9157 797 14 1.7919 13.601217623021638 14.411912406162596 4.490469704870097 -6 3 0
11530 522 31 -1.8561 14.426097924989948 9.753374503525517 15.442568727317026 5 -1 -3
5855 522 12 2.1192 15.358054072457161 10.441975042132144 15.782494563063816 5 -1 -3
12225 638 30 -1.7492 16.1783851481684 15.696378630901396 10.130236198696828 1 -1 3
11529 522 30 -1.7492 15.332933204979032 10.406433595640944 15.812738163835746 5 -1 -3
13181 797 32 -2.1019 13.60401089661806 14.386878897471298 4.5140193783803175 -6 3 0
7255 638 20 0.26 14.199951613241057 15.843170949727279 10.040675608813606 1 -1 3
2955 141 3 0.13 18.617023279870054 4.934411039204182 8.847267616729676 1 0 1
7247 638 12 2.1192 16.14345368548915 15.691230603581815 10.117530523180239 1 -1 3
2746 131 5 2.5824 14.495659229385687 4.757575469867577 12.601009246499846 1 1 1
9163 797 20 0.26 13.54932810183102 15.342054373053923 4.649110592348973 -6 3 0
4920 444 13 1.4661 23.48814250679592 12.194904027968745 15.610512173707232 -1 1 2
680 33 3 0.13 24.759531023326964 4.6263337114493694 15.524278194242159 0 0 1
4922 444 15 1.6619 21.518713308168905 10.447615020571583 14.742172839961643 -1 1 2
6761 597 18 0.12 25.519548361338565 12.02852771932157 4.9316329800059036 2 0 3
7986 699 19 0.12 26.746029249164195 5.687546643256634 10.248374922158435 -1 0 -2
12590 699 29 -2.0081 26.52999980048839 4.625485692080818 10.446856321637506 -1 0 -2
6173 548 18 0.12 26.59762418077954 13.419886508128766 7.454726665673259 5 0 4
5687 508 12 2.1192 21.73872138015297 14.806295176975558 10.302461811826493 10 1 -5
4534 412 11 2.1281 26.83829401230334 7.128575224369086 5.845576438861965 0 1 3
5688 508 13 1.4661 21.682642547847397 13.589234881282952 10.601089311048248 10 1 -5
2941 141 1 2.0273 20.152070398206636 4.676719494952994 10.257445494120061 1 0 1
7979 699 12 2.1192 26.65447432903695 4.752113977284015 12.045061508667658 -1 0 -2
11445 508 30 -1.7492 21.729593087868725 14.78566149143447 10.283417785951762 10 1 -5
4919 444 12 2.1192 23.447482435429773 11.844060857890808 14.437926057183665 -1 1 2
10735 335 27 -3.6401 26.56298858447496 7.149482585817803 15.419967324493077 -1 0 0
4335 335 9 2.6401 26.52234766707175 7.150924037575662 15.415583337084872 -1 0 0
11779 564 28 -2.4449 22.061647964613506 9.70953607952087 8.3892753340177 -3 1 2
11064 444 33 -2.1019 21.489324889379112 10.44018030543095 14.73707948919657 -1 1 2
11446 508 31 -1.8561 21.687109521803517 13.58320504700831 10.607949184865877 10 1 -5
8251 721 20 0.26 27.292860534102232 8.412000290658154 9.12440625407874 -1 0 0
11858 577 29 -2.0081 27.48247072078388 10.388884671384377 14.243993270640548 -7 0 -4
5691 508 16 0.13 20.187450169219296 15.62520102946165 8.059258542012769 10 1 -5
12591 699 30 -1.7492 26.681669471733596 4.712850899082392 12.02424748148388 -1 0 -2
2951 141 3 0.13 21.09057153339748 5.535314798208621 8.4792170739284 1 0 1
11062 444 31 -1.8561 23.491110045015045 12.202633051680806 15.606060656533876 -1 1 2
4925 444 18 0.12 20.241478369059088 11.870082092020464 12.909218139599508 -1 1 2
10181 141 22 -1.9073 20.15499300838593 4.6660064586807515 10.245429100929705 1 0 1
10868 412 29 -2.0081 26.84025826971295 7.124168774725936 5.88414670913303 0 1 3
5781 516 10 2.1449 27.089445872210362 15.632153587804677 14.948887482913351 -2 0 -1
6518 577 15 1.6619 27.376607148490844 11.081881458797358 13.000534423752786 -7 0 -4
12991 766 28 -2.4449 20.135566010282897 14.478059056362003 5.158511693686057 -2 0 1
4921 444 14 1.7919 24.264377113579 12.252724412647735 13.52768797721564 -1 1 2
8781 766 10 2.1449 20.147792684417386 14.47363930264544 5.177661491631533 -2 0 1
6516 577 13 1.4661 26.731783713667685 12.280071181868816 15.380792471893201 -7 0 -4
11063 444 32 -2.1019 24.222551993713317 12.235599546891784 13.540428458844168 -1 1 2
6170 548 15 1.6619 25.624427074093074 11.925789187857077 10.17600472984925 5 0 4
11860 577 31 -1.8561 26.72389656465483 12.312151702130631 15.370455505275169 -7 0 -4
12589 699 28 -2.4449 25.159020857267883 4.519583206510112 9.851574516210135 -1 0 -2
8189 716 18 0.12 20.116180335901163 8.986180066668364 10.601918092844342 5 2 4
5792 516 21 0.24 24.230956411717607 15.49078160958979 13.885372467602265 -2 0 -1
11447 508 32 -2.1019 22.118218646572025 15.729528748372323 11.163450886547134 10 1 -5
6362 564 15 1.6619 22.79820360983731 7.5803206937266125 7.827305042055271 -3 1 2
11782 564 31 -1.8561 22.533495066520317 7.577464658137555 10.603499247621953 -3 1 2
11448 508 33 -2.1019 22.323209876090353 14.164849642185898 8.001172344252295 10 1 -5
11683 548 28 -2.4449 25.8800121867556 13.289383089679879 8.283081428628085 5 0 4
6367 564 20 0.26 24.133658553274906 8.935973196217706 11.61662017252601 -3 1 2
6368 564 21 0.24 23.421225980167833 6.900864740879825 8.035154100024227 -3 1 2
5686 508 11 2.1281 22.128703537275047 15.32862087458405 8.833087528560164 10 1 -5
4924 444 17 0.08 20.545623655063665 12.51528660674815 14.422448404799253 -1 1 2
5695 508 20 0.26 21.951878073749548 15.497658735029049 12.081825906635427 10 1 -5
5043 454 16 0.13 20.375718493490314 6.576874113943099 4.646024273954666 -3 0 -1
5782 516 11 2.1281 25.632307960996012 15.385822513741049 14.978589482391428 -2 0 -1
5690 508 15 1.6619 22.33256416424229 14.156423345552748 8.032767690347995 10 1 -5
10872 412 33 -2.1019 27.085389125308122 5.762156120342942 6.155460615831067 0 1 3
11444 508 29 -2.0081 22.139346173394483 15.320235031096628 8.843877396530573 10 1 -5
5694 508 19 0.12 23.07310883858206 15.836292420732947 9.02922742668854 10 1 -5
11119 454 28 -2.4449 20.224767420394844 7.659945493684122 4.830992966943601 -3 0 -1
11862 577 33 -2.1019 27.38998136305862 11.064230706397145 12.982453224406399 -7 0 -4
6364 564 17 0.08 21.10148208343704 9.218967351564967 8.401596953181128 -3 1 2
2953 141 3 0.13 22.07401769016112 5.37465596437948 9.892739770893243 1 0 1
7984 699 17 0.08 25.05140606480736 4.678004441064692 8.781420633029906 -1 0 -2
4535 412 12 2.1192 26.631798026089815 8.019515010211826 7.115237068986154 0 1 3
11061 444 30 -1.7492 23.410056487272936 11.830283384639623 14.45269766714575 -1 1 2
4543 412 20 0.26 27.164294549100816 9.424241332506336 5.909206487777476 0 1 3
5786 516 15 1.6619 25.136203245184657 15.267442503204624 13.731546448596811 -2 0 -1
11060 444 29 -2.0081 22.184348304000473 11.234724172230358 13.82697803070346 -1 1 2
10871 412 32 -2.1019 26.731608405431558 9.328759806321358 6.803053919892404 0 1 3
6357 564 10 2.1449 22.06792708858132 9.723014020125387 8.401722868086484 -3 1 2
4928 444 21 0.24 22.190357426382036 10.24480420663296 15.37524933080474 -1 1 2
4918 444 11 2.1281 22.18793834258506 11.243263152202946 13.825567297455663 -1 1 2
7987 699 20 0.26 26.515726709723303 6.277055212430546 13.288631381068294 -1 0 -2
10869 412 30 -1.7492 26.612217273286948 7.986609931974984 7.153903690164935 0 1 3
11492 516 29 -2.0081 25.609309794645952 15.401938832917722 14.972397487152056 -2 0 -1
11684 548 29 -2.0081 26.5078441916244 12.167886269943798 9.058172761967315 5 0 4
11781 564 30 -1.7492 23.328105538847648 8.233337969468675 9.987624493143551 -3 1 2
6515 577 12 2.1192 26.86460540467328 11.057051112780478 15.474611108485144 -7 0 -4
4917 444 10 2.1449 21.069014551191763 12.26212094148289 13.500459117422183 -1 1 2
4923 444 16 0.13 21.5331313665046 13.161074964524625 13.094781079899825 -1 1 2
2942 141 2 2.2749 19.89258337296734 6.031258934753589 10.868477547692315 1 0 1
10182 141 23 -2.4449 19.917089893553737 6.016888595577686 10.86037385229241 1 0 1
4537 412 14 1.7919 26.74689773093352 9.355493077463592 6.754232596551556 0 1 3
5689 508 14 1.7919 22.111762382422693 15.752105699591697 11.18588274046158 10 1 -5
6176 548 21 0.24 25.49521784198724 12.72133127967797 10.669403101203615 5 0 4
10870 412 31 -1.8561 26.01619732297865 7.642472717817513 8.103959964344341 0 1 3
4538 412 15 1.6619 27.088387592724157 5.788763292357166 6.164691640750888 0 1 3
2949 141 3 0.13 20.722001397639822 6.5144999722298405 11.384857076058802 1 0 1
5045 454 18 0.12 21.247310037807296 8.027613698248944 4.904977758646696 -3 0 -1
6165 548 10 2.1449 25.88865372002066 13.297405380593135 8.273536482180509 5 0 4
4541 412 18 0.12 24.637536964494792 6.8361265114846645 5.695410426267888 0 1 3
5696 508 21 0.24 22.691181119209958 13.535606841219401 8.64839777109654 10 1 -5
11059 444 28 -2.4449 21.053399830633236 12.259579919733524 13.50830187655786 -1 1 2
10867 412 28 -2.4449 25.468297913771742 7.178054555284204 5.090930520536504 0 1 3
11688 548 33 -2.1019 25.604596663977645 11.925612274746877 10.153972384201987 5 0 4
4927 444 20 0.26 24.90012267834959 12.66567778008248 14.0918899871081 -1 1 2
4533 412 10 2.1449 25.46635196482761 7.186138927136177 5.080070722904153 0 1 3
6166 548 11 2.1281 26.480279570032483 12.168788884616074 9.05339153648429 5 0 4
6174 548 19 0.12 26.66363456478941 11.36250104430621 8.343207790200248 5 0 4
4540 412 17 0.08 25.30605330506424 8.234164396770804 4.827005896448987 0 1 3