LAMMPS data file via write_data, version 29 Oct 2020, timestep = 30000000

12000 atoms
33 atom types
11300 bonds
28 bond types
12200 angles
25 angle types
14800 dihedrals
28 dihedral types

4.81050191528057 50.189498084716874 xlo xhi
4.81050191528057 50.189498084716874 ylo yhi
4.81050191528057 50.189498084716874 zlo zhi

Masses

1 13.607
2 11.611
3 1.008
4 11.611
5 11.611
6 1.008
7 15.599
8 1.008
9 35.05300000000003
10 11.611
11 11.611
12 11.611
13 15.599
14 15.599
15 15.599
16 1.008
17 1.008
18 1.008
19 1.008
20 1.008
21 1.008
22 0.4000000000000006
23 0.4
24 0.4
25 0.4
26 0.4
27 0.3999999999999965
28 0.4
29 0.4
30 0.4
31 0.4
32 0.4
33 0.4

Bond Coeffs # harmonic

1 382.003 1.448
2 339.986 1.09
3 267.925 1.529
4 320.005 1.41
5 553 0.945
6 267.997 1.529
7 340.01 1.09
8 340.01 1.09
9 340.01 1.09
10 316.993 1.522
11 320.005 1.41
12 340.01 1.09
13 570.005 1.229
14 450 1.364
15 553.011 0.945
16 553.011 0.945
17 500 0
18 500 0
19 500 0
20 500 0
21 500 0
22 500 0
23 500 0
24 500 0
25 500 0
26 500 0
27 500 0
28 500 0

Angle Coeffs # harmonic

1 51.8045 107.2
2 35.0024 109.5
3 32.9947 107.8
4 56.2022 109.5
5 37.5 110.7
6 50 109.5
7 35.0024 109.5
8 54.9952 108.5
9 37.5 110.7
10 37.5 110.7
11 37.5 110.7
12 33.0067 107.8
13 33.0067 107.8
14 33.0067 107.8
15 63.0019 111.1
16 50 109.5
17 37.5 110.7
18 51.6491 110.5
19 34.9904 109.5
20 34.9904 109.5
21 79.9952 120.4
22 70.0048 108
23 79.9952 121
24 34.9904 113
25 54.9952 108.5

Dihedral Coeffs # opls

1 0 0 0.55999 0
2 0.415989 -0.128011 0.695005 0
3 -1.013 -0.709011 0.472992 0
4 -10.5286 -1.29897 0 0
5 0 0 0.3 0
6 0 0 0.467997 0
7 -0.355999 -0.173996 0.491993 0
8 0 0 0.45 0
9 0 0 -0.1 0
10 0 0 0.467997 0
11 0 0 0.3 0
12 0 0 -0.1 0
13 0 0 0.467997 0
14 0 0 0.3 0
15 0 0 -0.1 0
16 0 0 0.467997 0
17 0 0 0.3 0
18 0 0 0 0
19 1 0.546009 0.45 0
20 0 0 0 0
21 9.50801 0 0 0
22 0 0 0 0
23 0 0 0 0
24 -0.355999 -0.173996 0.491993 0
25 -0.355999 -0.173996 0.491993 0
26 0 0 0.352008 0
27 1.5 5.5 0 0
28 0 5.5 0 0

Atoms # full

4075 357 12 2.1192 7.603332758134059 9.885382404811612 5.799394204984793 0 -2 1
9939 357 30 -1.7492 7.564223075561241 9.937698429965241 5.779257378858935 0 -2 1
3090 275 11 2.1281 7.658454382437007 10.976201110538549 12.97767858088146 6 -5 7
3094 275 15 1.6619 7.015719954383231 9.845226187163009 12.453615771794576 6 -5 7
9450 275 33 -2.1019 7.018119047204935 9.821801993367455 12.471226125841465 6 -5 7
3100 275 21 0.24 6.962717388926089 10.059449880367303 11.534748711347653 6 -5 7
10688 482 29 -2.0081 10.214804066899749 14.782789697338616 10.10815335948208 2 -5 4
5574 482 11 2.1281 10.215123958737605 14.772646730375243 10.09071166821668 2 -5 4
9446 275 29 -2.0081 7.6459570684384905 10.980968576583235 12.974678868199662 6 -5 7
3098 275 19 0.12 7.066572842643134 11.296196800691417 13.835219033671784 6 -5 7
9447 275 30 -1.7492 7.5418307235519775 12.177013584535814 12.055436513173925 6 -5 7
3091 275 12 2.1192 7.5419125187153595 12.197081864645181 12.062299710939767 6 -5 7
11694 649 33 -2.1019 10.087222154757239 7.282574240476578 5.223497607461447 6 7 6
3092 275 13 1.4661 7.356198214358912 12.097553434329038 10.882614180412036 6 -5 7
9448 275 31 -1.8561 7.348973732871542 12.0952371712658 10.887970944472182 6 -5 7
10303 418 28 -2.4449 5.473672911567441 6.934277985503895 8.570961059216966 -2 5 1
4083 357 20 0.26 9.005577460918754 8.669999571960382 6.551731140889912 0 -2 1
11692 649 31 -1.8561 10.559966686647284 7.25512490881091 7.941585360850423 6 7 6
9449 275 32 -2.1019 7.538069007835439 13.300496627437932 12.778035889269429 6 -5 7
3093 275 14 1.7919 7.539492219781854 13.327176234148912 12.768647545420867 6 -5 7
9445 275 28 -2.4449 9.197976434081875 10.7205854063725 13.413669671663744 6 -5 7
3099 275 20 0.26 7.373125120751379 14.117687404116957 12.27830585479035 6 -5 7
3096 275 17 0.08 9.832804395044107 10.319156657924578 12.61935277674008 6 -5 7
3095 275 16 0.13 9.783679936113733 11.61141399587496 13.688008809933182 6 -5 7
3089 275 10 2.1449 9.204797995991322 10.730854372288892 13.40941860980914 6 -5 7
3097 275 18 0.12 9.330887360458092 10.045390825241467 14.247473736674161 6 -5 7
11152 559 31 -1.8561 8.663384458036036 15.343307235449855 5.446083468789627 1 2 -5
4076 357 13 1.4661 7.034495756757432 10.968523725449478 5.883453612611551 0 -2 1
11153 559 32 -2.1019 8.59573985545566 13.23353321840776 5.9863646735511375 1 2 -5
7239 620 20 0.26 9.513299659361216 6.965878166604432 9.185176581771147 9 -2 -3
6500 559 13 1.4661 8.643139038592507 15.322169567881662 5.456878782859267 1 2 -5
6507 559 20 0.26 8.042666596175444 12.41306364671399 6.0048531502785245 1 2 -5
7582 649 15 1.6619 10.11820461735743 7.253274138198086 5.239145418800743 6 7 6
6501 559 14 1.7919 8.583698729959456 13.187709095003056 5.989872297305183 1 2 -5
11519 620 32 -2.1019 9.060852915643244 6.899185487807584 10.073359873362635 9 -2 -3
7233 620 14 1.7919 9.07189405610417 6.945261219745216 10.020493950021768 9 -2 -3
10687 482 28 -2.4449 9.83393816309658 13.69497675052114 9.070084413449136 2 -5 4
5573 482 10 2.1449 9.814562660257971 13.695950171109518 9.057006749694429 2 -5 4
11690 649 29 -2.0081 11.41107566637656 7.225082673236973 5.6555807919649475 6 7 6
4995 433 20 0.26 5.770159471757159 11.770313189855104 7.722140907471948 4 -2 -2
5580 482 17 0.08 8.799240012636595 13.360252512148339 9.26799393288113 2 -5 4
5579 482 16 0.13 9.732962621214241 14.080521559557964 8.040376612640264 2 -5 4
7335 628 20 0.26 10.657948966427355 7.5821399553242115 13.12602501239273 4 9 1
11567 628 32 -2.1019 11.387455706743454 8.233659713874353 13.123254943387765 4 9 1
7329 628 14 1.7919 11.355633993034438 8.219034443429974 13.150856911327041 4 9 1
3686 324 19 0.12 6.28555477049245 6.020335536973526 12.342386193311361 -4 -3 4
7578 649 11 2.1281 11.45088001114284 7.2160870858879544 5.639451494271791 6 7 6
3677 324 10 2.1449 5.143967002384081 7.49963831195881 13.633235326459259 -4 -3 4
11151 559 30 -1.7492 8.0017319866013 14.450445063407706 5.830863577854004 1 2 -5
3685 324 18 0.12 6.019416723773515 8.085313028060968 13.913725869684692 -4 -3 4
9739 324 28 -2.4449 5.120873931808016 7.490270470883978 13.626745509219443 -4 -3 4
6499 559 12 2.1192 7.996517861940983 14.409346323864055 5.841959768336868 1 2 -5
7583 649 16 0.13 11.400026188343302 9.334585681633845 5.928810456641081 6 7 6
3679 324 12 2.1192 6.19653989552113 5.381173257247078 14.39518647049788 -4 -3 4
9741 324 30 -1.7492 6.161243209546209 5.382694942140043 14.397964517275271 -4 -3 4
8064 689 17 0.08 11.517688249249087 14.700622574231016 15.187778193872672 -1 2 0
7577 649 10 2.1449 11.984403842025774 8.659969735651291 5.303116158722592 6 7 6
11689 649 28 -2.4449 11.96618443318202 8.661896838051872 5.288232538947049 6 7 6
2264 206 13 1.4661 10.172435376215878 7.5762409312606325 15.891390622107084 2 5 5
9940 357 31 -1.8561 7.021742453187462 11.01522819598305 5.892758294625046 0 -2 1
7231 620 12 2.1192 9.294367843350306 5.837325307758528 10.757852377152105 9 -2 -3
5584 482 21 0.24 9.80336175220937 14.453706677871686 11.904030140358884 2 -5 4
5939 512 16 0.13 4.865986171953087 12.208720299542321 13.893493753120291 2 -4 0
7333 628 18 0.12 12.021654798618194 10.598490646460355 11.723111855892803 4 9 1
9941 357 32 -2.1019 8.548259677581374 9.543668821098992 6.678774016359207 0 -2 1
11150 559 29 -2.0081 6.567695047857182 14.371960821731655 5.681698589671107 1 2 -5
4077 357 14 1.7919 8.578903941353047 9.499083836552552 6.705313201722832 0 -2 1
11691 649 30 -1.7492 11.404790669581821 6.856858094037536 7.158341082707895 6 7 6
11154 559 33 -2.1019 6.030951327939996 15.686818640498156 5.877516407529067 1 2 -5
5578 482 15 1.6619 10.301934562014765 13.97755865613272 11.257709174536705 2 -5 4
10692 482 33 -2.1019 10.315528690683404 13.950222422824453 11.263760939823767 2 -5 4
7579 649 12 2.1192 11.457107815105847 6.842136891716565 7.158622195065944 6 7 6
10397 433 32 -2.1019 5.195392734140191 11.755130644283888 8.491277895777074 4 -2 -2
9740 324 29 -2.0081 5.583023402132362 6.057227690659463 13.172316624200871 -4 -3 4
3678 324 11 2.1281 5.578335102600512 6.070806175567857 13.17026671607974 -4 -3 4
10306 418 31 -1.8561 5.392622866029127 6.16260307397117 4.921575687657683 -2 5 1
5581 482 18 0.12 10.49588579044471 12.850995536348572 9.156725863406164 2 -5 4
7580 649 13 1.4661 10.582180717839822 7.254187133249698 7.9221388364252245 6 7 6
4805 418 10 2.1449 5.461378036104547 6.939104309297338 8.567937906201324 -2 5 1
5575 482 12 2.1192 9.096127744717617 15.879443427037561 10.150910015013762 2 -5 4
6498 559 11 2.1281 6.53513349611473 14.370181733800626 5.668369366824972 1 2 -5
7232 620 13 1.4661 8.799264074149669 5.702821264081427 11.848996639081848 9 -2 -3
6502 559 15 1.6619 6.058033971383761 15.68901852460639 5.886463176173988 1 2 -5
6506 559 19 0.12 6.1992853522013 13.73180554684976 6.485544366936013 1 2 -5
7586 649 19 0.12 11.979351711448492 6.460442363655629 5.058238236855476 6 7 6
3687 324 20 0.26 7.897883998013043 5.804058737699949 13.53887602139036 -4 -3 4
10304 418 29 -2.0081 5.910979298000677 6.068174212198605 7.406080346052858 -2 5 1
4806 418 11 2.1281 5.89923465313236 6.066061133012454 7.410733675959917 -2 5 1
4811 418 16 0.13 5.184559951223976 7.965458228997241 8.326970127814667 -2 5 1
11518 620 31 -1.8561 8.775282143806987 5.704445914356979 11.889670218305016 9 -2 -3
4810 418 15 1.6619 7.227453754898765 6.440100382325989 7.027287410166683 -2 5 1
9743 324 32 -2.1019 7.527779303449049 5.733829932764288 14.450893096240723 -4 -3 4
7238 620 19 0.12 10.155126868110358 4.940320674323975 9.02479182489299 9 -2 -3
10308 418 33 -2.1019 7.255902049768163 6.455044176090058 7.040422063168084 -2 5 1
10689 482 30 -1.7492 9.07846542959095 15.842470302389842 10.172636340335535 2 -5 4
4812 418 17 0.08 6.231407705534799 7.254559022436295 9.271958386576447 -2 5 1
4816 418 21 0.24 7.477458077205856 5.9002677254403215 6.293056299355327 -2 5 1
9034 206 31 -1.8561 10.184571304109054 7.590149863261851 15.873476338286904 2 5 5
4807 418 12 2.1192 5.085251405591166 6.325894552401336 6.079913333345757 -2 5 1
4989 433 14 1.7919 5.219727920331903 11.75199529303284 8.490066178538815 4 -2 -2
11517 620 30 -1.7492 9.282958153229929 5.788871630346051 10.809876919336066 9 -2 -3
7588 649 21 0.24 9.742246476793119 6.395813717821258 5.367338899034782 6 7 6
4808 418 13 1.4661 5.399051608538979 6.16826833477983 4.919626531116485 -2 5 1
5576 482 13 1.4661 8.108071439791567 15.741028279186263 10.893691690005566 2 -5 4
10690 482 31 -1.8561 8.099593021922677 15.740984276623138 10.918163083082321 2 -5 4
5582 482 19 0.12 11.190265978702186 15.229672443367892 9.922410427936564 2 -5 4
3681 324 14 1.7919 7.560869451848809 5.734716198387146 14.419007591862858 -4 -3 4
4814 418 19 0.12 5.922404874160192 5.008481273853941 7.673560986207608 -2 5 1
10305 418 30 -1.7492 5.120630046214103 6.328475566579509 6.0853859190988 -2 5 1
3680 324 13 1.4661 5.61255501550736 5.18982954524137 15.470439885980493 -4 -3 4
9742 324 31 -1.8561 5.61644622100743 5.204358282075705 15.483646483518056 -4 -3 4
5940 512 17 0.08 5.2024768305313955 13.829715583493728 14.4573232131938 2 -4 0
2272 206 21 0.24 8.563748481081577 5.268766181971647 16.144241261990988 2 5 5
4082 357 19 0.12 7.872223476653563 8.068146919135813 4.852989274995458 0 -2 1
1651 79 3 0.13 19.726393976160523 10.2579222333562 5.049746947850732 -1 -1 0
158 8 3 0.13 17.676592818887897 16.13223877545081 8.766509275886456 0 -1 0
10067 378 32 -2.1019 13.866485290708326 14.701840110455702 4.85468822068407 1 -1 -1
1939 93 3 0.13 19.66548298042088 5.499536804884098 5.007498822154623 -1 0 0
6148 529 21 0.24 16.82512618981967 6.988754628048986 14.601366500346945 -3 -5 -4
7332 628 17 0.08 13.77257868471839 10.992174981207535 11.431889651459588 4 9 1
7325 628 10 2.1449 12.987755258647955 10.2383434392375 11.36950683329128 4 9 1
11563 628 28 -2.4449 12.996952682513458 10.245468083261267 11.36334675310263 4 9 1
4335 378 20 0.26 14.628759949161402 14.642069985660616 5.451337273068953 1 -1 -1
7057 605 18 0.12 17.8739212516232 15.557993387150454 16.01813284295304 5 -1 -5
8063 689 16 0.13 13.19113345678543 14.991430142257306 14.693707911386085 -1 2 0
5451 471 20 0.26 17.8448661831208 4.899595332933038 15.446155276376892 1 0 -4
8057 689 10 2.1449 12.484249844996173 14.226928594109049 15.016124122284472 -1 2 0
11929 689 28 -2.4449 12.476710558941416 14.247351814915262 15.005274166131638 -1 2 0
7331 628 16 0.13 12.843213696511464 9.88247783249013 10.349431240672402 4 9 1
10624 471 31 -1.8561 18.041653146487636 4.929308270374494 12.99181306533223 1 0 -4
11693 649 32 -2.1019 12.622502586465737 6.6784739434143825 7.667701163731478 6 7 6
7581 649 14 1.7919 12.677973886362404 6.659289607558993 7.651382840298599 6 7 6
1650 79 3 0.13 18.87136990541393 8.911428489719368 5.411367724253314 -1 -1 0
8752 79 25 -2.3074 15.974128240859676 8.296941676764437 4.845662775663169 -1 -1 0
8250 8 22 -1.9073 19.167368275591574 15.743383200017886 7.4812125626968395 0 -1 0
7587 649 20 0.26 13.274187679381505 6.4097105848489155 6.961992890729826 6 7 6
152 8 3 0.13 17.221719078552507 14.945269284727635 6.668394582946406 0 -1 0
150 8 2 2.2749 18.198248437312493 15.341687592095775 6.3903089343884965 0 -1 0
9305 251 32 -2.1019 13.926202168832456 14.787797055462434 8.536324104583143 1 -1 4
8252 8 23 -2.4449 18.21794310070484 15.36137457259571 6.472943493227467 0 -1 0
2809 251 18 0.12 14.422819749986912 15.617152615311555 11.720660611232214 1 -1 4
2115 115 9 2.6401 14.268059274165694 5.635975328110135 5.288497051043717 -1 -1 -1
1392 67 3 0.13 16.856029119432478 6.433506208019537 11.363907721308156 0 0 0
8065 689 18 0.12 12.485719982651265 13.47996517067731 14.22231671589355 -1 2 0
1401 67 3 0.13 19.000073903784788 6.2197056599076594 10.358468995694214 0 0 0
1391 67 3 0.13 15.371654184753007 6.119390463098163 10.771757422306491 0 0 0
1389 67 2 2.2749 16.40710779302787 5.856416265437457 10.555489966675546 0 0 0
2858 255 19 0.12 19.31319455803198 8.972702714684441 14.837215495178608 -5 2 0
8067 689 20 0.26 15.448816431099525 11.960985653535435 15.091429106981687 -1 2 0
7330 628 15 1.6619 14.69338487038771 8.696196640703365 11.874813267622338 4 9 1
11568 628 33 -2.1019 14.7105035733615 8.703514102276399 11.854765425770534 4 9 1
7336 628 21 0.24 14.787213151963956 7.794731178348526 12.142347879563548 4 9 1
7334 628 19 0.12 13.731051554143844 9.569578265453528 13.283741232412318 4 9 1
1397 67 3 0.13 17.27123326096885 8.38510106687895 10.120629237987458 0 0 0
1400 67 4 2.0672 18.524415768573956 5.97565150712464 9.40858032739045 0 0 0
1387 67 1 2.0273 17.123398195655568 6.436309924333962 9.423085170230934 0 0 0
2116 116 9 2.6401 17.72531621500955 11.695262737462297 15.540909907395328 0 0 1
2853 255 14 1.7919 17.752221573381366 9.955484914673894 13.17529282887367 -5 2 0
1398 67 3 0.13 15.849242347871401 8.220491863621788 9.103360630649833 0 0 0
1399 67 3 0.13 17.423592581550135 8.418094393110518 8.428928934947574 0 0 0
11566 628 31 -1.8561 12.376125354728861 7.128399281711625 11.451606775817579 4 9 1
7328 628 13 1.4661 12.382238891986876 7.137244406265246 11.447436180208967 4 9 1
11565 628 30 -1.7492 12.425921224159765 7.959643801956478 12.33502977824009 4 9 1
7327 628 12 2.1192 12.396332691954752 7.956591114370091 12.355970928585096 4 9 1
11564 628 29 -2.0081 13.467698062424263 9.108827484663808 12.332643031195033 4 9 1
7326 628 11 2.1281 13.459680310023192 9.11154769217715 12.332601245006494 4 9 1
1643 79 3 0.13 17.32310281043536 9.989261603009652 6.914287534387609 -1 -1 0
2806 251 15 1.6619 15.21016283314365 13.134457612271042 11.443829730426682 1 -1 4
9306 251 33 -2.1019 15.183841010695414 13.142285417233502 11.466061365712651 1 -1 4
8749 79 23 -2.4449 17.43368525239401 10.952448604785705 6.3773176086748125 -1 -1 0
1641 79 2 2.2749 17.414026136892673 10.919911847553644 6.3541850450845505 -1 -1 0
2812 251 21 0.24 15.858121228101702 12.84457968233341 10.82001869514354 1 -1 4
2804 251 13 1.4661 15.847487094414829 13.709457379519735 8.908290524088926 1 -1 4
9304 251 31 -1.8561 15.8526841470748 13.710994207238585 8.894510770709562 1 -1 4
2803 251 12 2.1192 14.810506433189355 14.16855748882965 9.365118973225611 1 -1 4
9303 251 30 -1.7492 14.8279234689377 14.165638242212745 9.37218950294624 1 -1 4
1645 79 3 0.13 18.33647868058843 11.428911619667623 6.633653176257143 -1 -1 0
1390 67 2 2.2749 16.88467923918417 7.901804140741772 9.223354399272258 0 0 0
8666 67 23 -2.4449 16.856164922957703 7.867428212006245 9.23705461517453 0 0 0
11429 605 32 -2.1019 17.948791697767902 13.02785749749855 12.578436926224846 5 -1 -5
7053 605 14 1.7919 17.929700662742633 12.988641345226274 12.612884515979495 5 -1 -5
7059 605 20 0.26 17.92342105349417 12.496483459222496 13.41958309603416 5 -1 -5
9329 255 32 -2.1019 17.802239938050338 9.901383337761583 13.12959719924535 -5 2 0
2859 255 20 0.26 17.793654660249064 10.413698496504116 14.000731301369697 -5 2 0
8663 67 22 -1.9073 17.14364873203064 6.421407734942926 9.434008062811914 0 0 0
8061 689 14 1.7919 14.555233727447199 12.180656857801255 15.306548916162324 -1 2 0
11933 689 32 -2.1019 14.515852203081932 12.199108886980577 15.324072205627353 -1 2 0
2851 255 12 2.1192 18.789903060352398 9.10919370781773 12.810390923946073 -5 2 0
9327 255 30 -1.7492 18.835625218138667 9.059752970163311 12.768593972665874 -5 2 0
8916 116 27 -3.6401 17.72116693955123 11.683179460404839 15.471655830473109 0 0 1
9326 255 29 -2.0081 19.811138835969533 9.110268347809292 13.87222043239273 -5 2 0
2850 255 11 2.1281 19.824089715836173 9.128894736272505 13.88711792144409 -5 2 0
1644 79 3 0.13 16.405377706112887 11.287344731091657 6.543163920613987 -1 -1 0
8753 79 26 -2.1019 15.769721423464318 8.179944305188556 6.238793489121946 -1 -1 0
1659 79 8 0.418 15.359198320840486 7.301810381408108 6.28113322384895 -1 -1 0
8667 67 24 -2.2372 18.539022207544367 5.9983461567340575 9.382883456239572 0 0 0
1658 79 7 1.4189 15.754004498883459 8.154676295116138 6.182319562899385 -1 -1 0
9302 251 29 -2.0081 14.251477356051042 13.766900416389937 10.61818297215599 1 -1 4
2802 251 11 2.1281 14.251578834986791 13.76223484975878 10.642315386569706 1 -1 4
1396 67 3 0.13 16.94552572404018 6.13953727344768 7.318392356879767 0 0 0
1388 67 2 2.2749 16.442156767443848 5.842502944028686 8.23843775984622 0 0 0
8664 67 23 -2.4449 16.438784125337783 5.84770414655933 8.265120188959235 0 0 0
8665 67 23 -2.4449 16.39480811942423 5.841078988098798 10.527309200050421 0 0 0
1394 67 3 0.13 15.356724499950582 5.847672147104827 8.1389467669996 0 0 0
2852 255 13 1.4661 18.80894070332213 8.29053039339798 11.871881342296742 -5 2 0
7051 605 12 2.1192 18.097354478505874 14.31596120340966 12.711886243841747 5 -1 -5
11427 605 30 -1.7492 18.104029897279748 14.362409149789974 12.691489731691709 5 -1 -5
7585 649 18 0.12 12.970539299000201 8.643607183743674 5.767195506156563 6 7 6
1404 67 6 0.06 19.221220620362562 5.721120041353015 7.449971164201657 0 0 0
1402 67 5 2.5824 19.534245343200176 6.305471594751231 8.315207726339171 0 0 0
8668 67 25 -2.3074 19.54020226374455 6.341669173485164 8.303118007206285 0 0 0
8915 115 27 -3.6401 14.256122835791832 5.663142520708963 5.318143224561929 -1 -1 -1
7052 605 13 1.4661 18.170122476404572 14.94877817549231 11.672782317315919 5 -1 -5
6138 529 11 2.1281 15.52275478079325 7.175789385082854 16.05392020094039 -3 -5 -4
7058 605 19 0.12 19.330107630785896 14.013940977715505 14.372840148020975 5 -1 -5
7055 605 16 0.13 17.13911976475234 14.113406231810377 15.404805979479093 5 -1 -5
7049 605 10 2.1449 17.583772029974273 15.058695813229296 15.0936777283038 5 -1 -5
11425 605 28 -2.4449 17.60365731644151 15.100578680433157 15.074648193672832 5 -1 -5
7050 605 11 2.1281 18.62979838412786 14.78855303960256 14.06036919053291 5 -1 -5
11426 605 29 -2.0081 18.637939659895853 14.792089011718017 14.02541644848245 5 -1 -5
1406 67 7 1.4189 19.621001941307433 7.627730786895601 7.871514394737443 0 0 0
8669 67 26 -2.1019 19.59196425831111 7.670584480531774 7.914384292783544 0 0 0
11428 605 31 -1.8561 18.17410543397883 14.964838918551157 11.642683084935276 5 -1 -5
153 8 3 0.13 18.623514623256433 14.576976044776245 5.740344177653072 0 -1 0
162 8 3 0.13 18.493719557053538 14.14378478936464 8.501434081430697 0 -1 0
2807 251 16 0.13 13.17798210112149 14.574607472087214 12.289418747517958 1 -1 4
6144 529 17 0.08 13.796529095457462 8.003617241555725 15.239879380454752 -3 -5 -4
10974 529 33 -2.1019 15.929749986917496 6.691163880828417 14.77232372496965 -3 -5 -4
6142 529 15 1.6619 15.947406318076753 6.690244460267992 14.784460363871641 -3 -5 -4
2811 251 20 0.26 14.41107204767242 14.701192368374382 7.7236773588132435 1 -1 4
2805 251 14 1.7919 13.923505443076463 14.791807072903435 8.528094414231681 1 -1 4
2810 251 19 0.12 13.448118044011727 13.14183116678104 10.245282234384149 1 -1 4
9301 251 28 -2.4449 13.65256650431219 14.927167328953132 11.385446147787249 1 -1 4
9328 255 31 -1.8561 18.80559739183898 8.261268463083173 11.828265040520067 -5 2 0
148 8 1 2.0273 19.15861465695876 15.733927411167759 7.436568724388103 0 -1 0
7054 605 15 1.6619 19.279942390584033 16.00816588539707 13.9203683672667 5 -1 -5
2801 251 10 2.1449 13.65199449062528 14.928835276284738 11.374034012077262 1 -1 4
2808 251 17 0.08 12.961045729618526 15.591540842665928 10.852975039108427 1 -1 4
10970 529 29 -2.0081 15.543635171676396 7.162240206112991 16.067395973656055 -3 -5 -4
4329 378 14 1.7919 13.9116548436485 14.72232443289488 4.841137095069721 1 -1 -1
161 8 4 2.0672 19.471134703117894 14.483969641186897 8.159347510740153 0 -1 0
1639 79 1 2.0273 17.574571634425276 10.481988583291269 4.947111929779217 -1 -1 0
164 8 3 0.13 19.812901816289518 13.693885037771956 7.490729323737323 0 -1 0
2857 255 18 0.12 19.925895134063605 11.212951755892867 14.394871504300356 -5 2 0
168 8 8 0.418 19.737403471372296 15.461494560654765 10.706467088165885 0 -1 0
8254 8 24 -2.2372 19.476425929757035 14.492785779163517 8.197407824913062 0 -1 0
5445 471 14 1.7919 18.761204235527284 4.903194913664281 15.215223244422964 1 0 -4
5444 471 13 1.4661 18.061675077993407 4.911931497874505 13.014603715090773 1 0 -4
10625 471 32 -2.1019 18.7772643364966 4.89426501346808 15.173806624549451 1 0 -4
6143 529 16 0.13 13.49032778440779 6.363005676491271 15.740619343981724 -3 -5 -4
1393 67 3 0.13 16.664579112324127 4.843677903791766 10.865588857565326 0 0 0
10969 529 28 -2.4449 14.024181248294395 7.287779616571921 16.01282542101153 -3 -5 -4
6137 529 10 2.1449 14.005721166446111 7.279637509025546 16.027397369004134 -3 -5 -4
8747 79 22 -1.9073 17.570280698978255 10.486208678536173 4.983594823670393 -1 -1 0
7056 605 17 0.08 16.901442516647585 15.688398676712739 14.522721025190346 5 -1 -5
1403 67 3 0.13 18.580383946901073 4.890505025311546 9.49468523291244 0 0 0
11430 605 33 -2.1019 19.284655025500708 16.031099385934866 13.942346392948721 5 -1 -5
6146 529 19 0.12 15.774079498394592 8.231892425739158 15.956033280077708 -3 -5 -4
767 37 3 0.13 20.237374142360743 10.91565730950678 9.897316360611384 0 0 1
2638 237 15 1.6619 25.209407699173287 4.81660292416347 13.90431446882528 -7 9 4
10270 412 31 -1.8561 27.06240191508256 9.14765314943999 13.759669224141938 -1 1 3
81 4 6 0.06 27.39429967125271 9.944128598039356 7.7371593809445915 0 0 0
8219 3 24 -2.2372 24.1180870037789 14.805381146269172 5.460687275284054 -1 0 1
1845 88 6 0.06 26.295534489681913 8.849132136450722 5.325086242328429 -1 0 0
80 4 3 0.13 26.991478883897052 10.004515939695146 9.943243568202458 0 0 0
156 8 3 0.13 20.88131255508295 15.375084333187568 6.430609780355971 0 -1 0
5441 471 10 2.1449 21.117527697720583 4.970327603081102 13.1532426829982 1 0 -4
777 37 8 0.418 21.27367992392336 12.5134707588505 7.049697543975825 0 0 1
8217 3 23 -2.4449 25.477752633541847 14.411497566254925 7.370047638052494 -1 0 1
163 8 5 2.5824 20.529376853284166 14.548268364907846 9.217753356623632 0 -1 0
5449 471 18 0.12 20.655530883888353 5.4624754032426415 12.297415882184715 1 0 -4
8256 8 26 -2.1019 20.47768250711688 15.688888561324491 10.129804510877964 0 -1 0
1836 88 3 0.13 24.4010962243281 6.027140851820561 7.1617732116596935 -1 0 0
5448 471 17 0.08 21.170448528698095 5.792390018995611 13.867045219351299 1 0 -4
1250 60 3 0.13 25.61665225175392 15.302856502715834 11.622426513692366 -1 -1 0
9217 237 28 -2.4449 27.296576314787632 5.928981729223159 13.280306895689968 -7 9 4
1407 67 8 0.418 20.185709159109187 7.567741740628788 7.116182401039897 0 0 0
2855 255 16 0.13 20.745767372834027 10.761494840522559 12.922453940424772 -5 2 0
6278 540 19 0.12 23.389886265342405 13.667413986224712 12.57918294416952 -1 3 4
2635 237 12 2.1192 25.248632502251734 6.475000319672111 12.035783929308712 -7 9 4
10271 412 32 -2.1019 25.986556205942332 9.668192189964035 15.679120232994944 -1 1 3
6269 540 10 2.1449 24.55101070332563 14.283418566331354 14.459484850624111 -1 3 4
1843 88 5 2.5824 25.53491509062886 8.11168951416823 5.068690822406952 -1 0 0
6272 540 13 1.4661 23.70542541271903 11.35918821262311 14.750679462379468 -1 3 4
8815 88 25 -2.3074 25.51840101067256 8.093273852252988 5.024437873476337 -1 0 0
1243 60 2 2.2749 24.997505607017303 15.795136367085034 10.872482547034423 -1 -1 0
56 3 4 2.0672 24.103822128058532 14.789305471898395 5.434197931954304 -1 0 1
771 37 3 0.13 23.356974731146387 9.800259061852554 7.949528783341365 0 0 1
1251 60 3 0.13 25.5273234758966 15.562820822364182 9.948678857931029 -1 -1 0
4736 412 13 1.4661 27.06070820902622 9.14860956461967 13.770810589826214 -1 1 3
8617 60 23 -2.4449 24.993260312341317 15.87802942065766 10.891310054609988 -1 -1 0
1835 88 3 0.13 23.45626502990165 6.426436294484003 5.728974001788365 -1 0 0
4735 412 12 2.1192 26.9426266453115 9.155005051751724 15.00171461027292 -1 1 3
776 37 7 1.4189 21.653128043636098 12.021341600595735 7.761628985922101 0 0 1
772 37 5 2.5824 21.567126217025688 10.687743401954867 7.292239337416464 0 0 1
8457 37 24 -2.2372 22.295092900104812 9.661508380617754 8.215993686639093 0 0 1
757 37 1 2.0273 22.085359016779947 9.695656491898433 9.664187842502294 0 0 1
49 3 3 0.13 24.55442770818688 14.0618190433183 7.907848741597137 -1 0 1
770 37 4 2.0672 22.309232189556027 9.62650534003492 8.194770916574926 0 0 1
762 37 3 0.13 22.49886144155616 10.61485190488321 11.407199606045369 0 0 1
760 37 2 2.2749 20.673617048651042 9.930611351700477 10.063063787464154 0 0 1
9221 237 32 -2.1019 25.87973318201009 7.466702987778074 11.464408005861427 -7 9 4
2153 153 9 2.6401 25.008872195107685 13.023748076385385 10.23718068679591 0 -1 0
9220 237 31 -1.8561 24.120927737054824 6.019203698345036 11.63329295587447 -7 9 4
1829 88 2 2.2749 24.219101405230358 5.7544858478020915 6.122235810740621 -1 0 0
76 4 3 0.13 26.976112321109134 11.75198580375956 11.242707735623654 0 0 0
8928 128 27 -3.6401 25.578440354524556 8.199999687939998 8.39409951367074 0 -1 0
2633 237 10 2.1449 27.31452937424408 5.952217900083961 13.281499753988392 -7 9 4
11038 540 31 -1.8561 23.711512126100725 11.348966794959551 14.785485142793789 -1 3 4
10269 412 30 -1.7492 26.97653187783697 9.137731029416674 14.981515174908507 -1 1 3
8453 37 22 -1.9073 22.07912862226911 9.694232873924944 9.653781883328913 0 0 1
10621 471 28 -2.4449 21.11498786700366 4.945404932946234 13.130412896224142 1 0 -4
50 3 3 0.13 27.415226122753502 14.086180048011608 5.639068527345423 -1 0 1
2181 181 9 2.6401 20.690230632529204 13.297772214256971 5.11930392981143 0 -1 0
8953 153 27 -3.6401 25.00694821457918 13.04151266264798 10.274064373798605 0 -1 0
8981 181 27 -3.6401 20.67792006160331 13.286978393169795 5.148115428264479 0 -1 0
11037 540 30 -1.7492 23.84708215166078 12.01261055546484 13.81741894462516 -1 3 4
8218 3 23 -2.4449 25.225431425629864 12.744339755112062 5.864069344020958 -1 0 1
763 37 3 0.13 22.932880715397445 11.591398715731824 9.868419240340168 0 0 1
774 37 6 0.06 20.533273111364537 10.375189501173871 7.145458096798118 0 0 1
167 8 7 1.4189 20.462840166616225 15.645579761252149 10.129515381955057 0 -1 0
6276 540 17 0.08 25.438350091640068 14.36027784649572 13.83114026438136 -1 3 4
8454 37 23 -2.4449 22.423548597254715 8.333148173659467 10.22208144660035 0 0 1
6275 540 16 0.13 24.255941035757616 15.25768405634677 14.849150776461777 -1 3 4
8985 185 27 -3.6401 21.346601089152678 8.032277488110934 5.496547588303978 -1 1 1
775 37 6 0.06 21.99237002623186 10.762624995794969 6.291413695386398 0 0 1
4743 412 20 0.26 25.409861832593364 10.26672080369482 15.163004745630435 -1 1 3
2637 237 14 1.7919 25.89133047559359 7.502774832468691 11.423893331714998 -7 9 4
2128 128 9 2.6401 25.551802823329332 8.198056789132925 8.399473735172009 0 -1 0
47 3 3 0.13 25.718182402158455 15.451124708407361 7.652744510023899 -1 0 1
6270 540 11 2.1281 23.51727567090011 13.510238291499697 13.650236994946448 -1 3 4
766 37 3 0.13 21.791472120855822 7.501405969542541 9.93997704266391 0 0 1
6277 540 18 0.12 24.843534348595995 13.705528032126782 15.336165533872398 -1 3 4
1252 60 3 0.13 24.004678302206543 15.350690632239019 10.80284979631761 -1 -1 0
2636 237 13 1.4661 24.146895083928893 6.024603657335697 11.649014230034721 -7 9 4
8456 37 23 -2.4449 20.6797491051513 9.939155314232275 10.089051779982384 0 0 1
6271 540 12 2.1192 23.881082134768103 12.01850450500746 13.768242958009068 -1 3 4
759 37 2 2.2749 22.92868165062867 10.643155435803799 10.405925450225837 0 0 1
8255 8 25 -2.3074 20.535879872866737 14.587754923562043 9.233869918595824 0 -1 0
2854 255 15 1.6619 20.64421388908558 8.055871608881482 13.570434471839409 -5 2 0
9330 255 33 -2.1019 20.67699340786308 8.053108160957272 13.582703493812993 -5 2 0
2860 255 21 0.24 20.13373843129753 7.547545362719709 12.958851331139359 -5 2 0
758 37 2 2.2749 22.443221829610646 8.325640017734434 10.229711744887059 0 0 1
11035 540 28 -2.4449 24.53411246137878 14.29131554069311 14.464480781522903 -1 3 4
764 37 3 0.13 22.396848118544817 8.343310623544191 11.318580942431247 0 0 1
45 3 2 2.2749 25.457493876062166 14.420107582386981 7.413691765051165 -1 0 1
11039 540 32 -2.1019 24.951397599931425 11.699612146524633 13.07610477324924 -1 3 4
769 37 3 0.13 19.979914629421536 9.257207923153665 9.559685210895127 0 0 1
43 3 1 2.0273 25.311516068247737 14.155322840600883 6.011571853210381 -1 0 1