LAMMPS data file via write_data, version 29 Oct 2020, timestep = 30000000

12000 atoms
33 atom types
11300 bonds
28 bond types
12200 angles
25 angle types
14800 dihedrals
28 dihedral types

4.93435733042564 50.06564266962716 xlo xhi
4.93435733042564 50.06564266962716 ylo yhi
4.93435733042564 50.06564266962716 zlo zhi

Masses

1 13.607
2 11.611
3 1.008
4 11.611
5 11.611
6 1.008
7 15.599
8 1.008
9 35.05300000000003
10 11.611
11 11.611
12 11.611
13 15.599
14 15.599
15 15.599
16 1.008
17 1.008
18 1.008
19 1.008
20 1.008
21 1.008
22 0.4000000000000006
23 0.4
24 0.4
25 0.4
26 0.4
27 0.3999999999999965
28 0.4
29 0.4
30 0.4
31 0.4
32 0.4
33 0.4

Bond Coeffs # harmonic

1 382.003 1.448
2 339.986 1.09
3 267.925 1.529
4 320.005 1.41
5 553 0.945
6 267.997 1.529
7 340.01 1.09
8 340.01 1.09
9 340.01 1.09
10 316.993 1.522
11 320.005 1.41
12 340.01 1.09
13 570.005 1.229
14 450 1.364
15 553.011 0.945
16 553.011 0.945
17 500 0
18 500 0
19 500 0
20 500 0
21 500 0
22 500 0
23 500 0
24 500 0
25 500 0
26 500 0
27 500 0
28 500 0

Angle Coeffs # harmonic

1 51.8045 107.2
2 35.0024 109.5
3 32.9947 107.8
4 56.2022 109.5
5 37.5 110.7
6 50 109.5
7 35.0024 109.5
8 54.9952 108.5
9 37.5 110.7
10 37.5 110.7
11 37.5 110.7
12 33.0067 107.8
13 33.0067 107.8
14 33.0067 107.8
15 63.0019 111.1
16 50 109.5
17 37.5 110.7
18 51.6491 110.5
19 34.9904 109.5
20 34.9904 109.5
21 79.9952 120.4
22 70.0048 108
23 79.9952 121
24 34.9904 113
25 54.9952 108.5

Dihedral Coeffs # opls

1 0 0 0.55999 0
2 0.415989 -0.128011 0.695005 0
3 -1.013 -0.709011 0.472992 0
4 -10.5286 -1.29897 0 0
5 0 0 0.3 0
6 0 0 0.467997 0
7 -0.355999 -0.173996 0.491993 0
8 0 0 0.45 0
9 0 0 -0.1 0
10 0 0 0.467997 0
11 0 0 0.3 0
12 0 0 -0.1 0
13 0 0 0.467997 0
14 0 0 0.3 0
15 0 0 -0.1 0
16 0 0 0.467997 0
17 0 0 0.3 0
18 0 0 0 0
19 1 0.546009 0.45 0
20 0 0 0 0
21 9.50801 0 0 0
22 0 0 0 0
23 0 0 0 0
24 -0.355999 -0.173996 0.491993 0
25 -0.355999 -0.173996 0.491993 0
26 0 0 0.352008 0
27 1.5 5.5 0 0
28 0 5.5 0 0

Atoms # full

6103 526 12 2.1192 10.626105659478815 11.579325345136771 9.732093056030381 -2 -2 1
6110 526 19 0.12 8.950696335000654 12.848778846475636 9.22158225041259 -2 -2 1
6107 526 16 0.13 8.277854794173019 10.093515524396729 8.396351320316379 -2 -2 1
10953 526 30 -1.7492 10.633132515983158 11.58307376673392 9.694208934089344 -2 -2 1
10956 526 33 -2.1019 9.714699594325896 11.85742811300092 7.565074689310068 -2 -2 1
6104 526 13 1.4661 11.67015880990953 11.762508586795242 9.160407830644262 -2 -2 1
6101 526 10 2.1449 8.18113431132984 10.860228000886497 9.165080413269182 -2 -2 1
10951 526 28 -2.4449 8.194503597354439 10.869336005630895 9.147798507743104 -2 -2 1
6106 526 15 1.6619 9.735501700373986 11.870818266027952 7.59296887858209 -2 -2 1
6102 526 11 2.1281 9.346097554080245 11.862324016537691 8.979357800353446 -2 -2 1
10952 526 29 -2.0081 9.360340562704835 11.867438134049838 8.97425130225597 -2 -2 1
6109 526 18 0.12 8.186022412317834 10.391484482468117 10.149137816814218 -2 -2 1
10954 526 31 -1.8561 11.686450137562497 11.745225489193514 9.150059892852918 -2 -2 1
2862 256 11 2.1281 8.188090674103618 6.869333208625389 11.196312606612022 -3 1 -3
9332 256 29 -2.0081 8.17974037148216 6.858404878344022 11.189209923522027 -3 1 -3
6105 526 14 1.7919 10.526823291611054 11.06591929052528 10.993395434782567 -2 -2 1
6112 526 21 0.24 10.640408220573711 11.60084212756537 7.628888212938862 -2 -2 1
10955 526 32 -2.1019 10.505634174433354 11.07695691757373 10.95530671407188 -2 -2 1
6111 526 20 0.26 11.386194148434821 10.743986773576943 11.218946134011164 -2 -2 1
2867 256 16 0.13 9.55830831858022 7.7361344752149 12.629486826044635 -3 1 -3
11398 600 31 -1.8561 10.398863884987964 15.224680527732108 6.3105179405886584 -3 -3 -2
6108 526 17 0.08 7.170351792576585 11.233837058837299 9.00115598915921 -2 -2 1
4466 389 19 0.12 11.99969062738338 15.807397142399022 14.17250328524798 2 -3 3
2861 256 10 2.1449 8.946040407421656 8.014061180827444 11.771590290433119 -3 1 -3
2868 256 17 0.08 8.31424458277913 8.802897360125955 12.179860017114372 -3 1 -3
9331 256 28 -2.4449 8.94710382581282 8.001018368874972 11.75628691744299 -3 1 -3
2869 256 18 0.12 9.558947350528383 8.449855257144577 10.982574173188457 -3 1 -3
3750 330 11 2.1281 12.442657869490631 9.150123187706406 6.874620884009965 -2 5 0
9776 330 29 -2.0081 12.455672358351343 9.14351775310338 6.873840462473478 -2 5 0
2865 256 14 1.7919 5.844787984879836 7.746207138582379 11.397083297344032 -3 1 -3
6063 522 20 0.26 6.129047351781903 12.854376028495842 6.332191188341886 4 -3 -1
11400 600 33 -2.1019 11.491374043725825 15.27269789187664 8.851367945611058 -3 -3 -2
10360 427 31 -1.8561 11.66555279529229 7.422652422881859 13.45091213699746 0 -3 0
3923 344 16 0.13 7.556626328533792 15.105141605087478 15.11848870282674 3 -3 1
1389 67 2 2.2749 8.20385684013888 5.55956595659307 5.744007206708155 4 0 0
3817 335 18 0.12 6.29726153198418 6.563634076961398 14.82417010699028 -4 3 -1
9861 344 30 -1.7492 5.180509375153542 15.511530029026948 12.802901769926361 3 -3 1
6994 600 15 1.6619 11.4783177895961 15.284931821578974 8.833785647470146 -3 -3 -2
9860 344 29 -2.0081 5.746055389845706 15.68117412257702 14.23379656637471 3 -3 1
3918 344 11 2.1281 5.766880566186277 15.67822264863493 14.257448935521339 3 -3 1
4914 427 11 2.1281 11.957019012182435 5.1446429508320435 14.101715396936324 0 -3 0
4916 427 13 1.4661 11.671252064564278 7.423908199256766 13.449780037428058 0 -3 0
10362 427 33 -2.1019 10.846696170766823 5.258349864000485 14.908424626360475 0 -3 0
6626 569 19 0.12 6.304284422588068 9.778462312583255 6.75724432905076 -2 -3 1
6628 569 21 0.24 5.491351977001172 7.869436387673165 7.462611342290644 -2 -3 1
3758 330 19 0.12 12.305790870441395 10.21075799193564 7.085390676172644 -2 5 0
3917 344 10 2.1449 6.684979625286785 14.537972998369252 14.79192528331788 3 -3 1
4924 427 21 0.24 10.668693887125489 6.194683075317628 14.967144745636288 0 -3 0
10359 427 30 -1.7492 12.214700357374504 6.389977178058712 13.172093146353602 0 -3 0
3925 344 18 0.12 6.2639271605493105 13.930631009979443 15.593159841020057 3 -3 1
11210 569 29 -2.0081 5.320362855088934 9.443753825289628 6.429120196039826 -2 -3 1
9859 344 28 -2.4449 6.664782956418455 14.54100567040313 14.797382769158068 3 -3 1
9336 256 33 -2.1019 9.036213989362059 6.193342570107298 10.306035682097557 -3 1 -3
4915 427 12 2.1192 12.235157641731254 6.391269644356503 13.162322750262648 0 -3 0
9333 256 30 -1.7492 6.932419136636852 7.398786578173138 10.49603539804337 -3 1 -3
4465 389 18 0.12 11.213807873957673 13.690937186885524 13.028808679150426 2 -3 3
4464 389 17 0.08 11.493706066743773 13.552306073107896 14.941107487277787 2 -3 3
2863 256 12 2.1192 6.900705228987335 7.399963046081606 10.52441206417276 -3 1 -3
10130 389 29 -2.0081 10.975349706850926 15.424940496900371 14.128989841106403 2 -3 3
2866 256 15 1.6619 9.017041113143344 6.195555809102881 10.30460045491521 -3 1 -3
9334 256 31 -1.8561 6.9823896755801 7.905055359752708 9.360378378138794 -3 1 -3
2870 256 19 0.12 7.827458610539356 6.155151817717351 11.936594734092608 -3 1 -3
10358 427 29 -2.0081 11.955665156002054 5.1656307226659255 14.1172860875852 0 -3 0
2864 256 13 1.4661 6.974906730387242 7.8920728182383995 9.37960028372011 -3 1 -3
10129 389 28 -2.4449 10.953958002082457 13.909512459318242 14.087236062039887 2 -3 3
2871 256 20 0.26 5.248445011490829 8.312112704113273 10.931063826091286 -3 1 -3
9335 256 32 -2.1019 5.887784791059544 7.7376937108822705 11.39309302651302 -3 1 -3
4463 389 16 0.13 9.922921590770805 13.58893982497193 14.098570380166882 2 -3 3
2872 256 21 0.24 9.103548203907152 6.727743357017064 9.528496859411982 -3 1 -3
8665 67 23 -2.4449 8.20957302568197 5.572880154505405 5.754263940473271 4 0 0
9805 335 28 -2.4449 6.192944974970216 6.563033391624113 15.898747781598894 -4 3 -1
4467 389 20 0.26 10.534209333223846 15.879868883779928 10.967000331586066 2 -3 3
6992 600 13 1.4661 10.412096921241952 15.224708684690773 6.322633218904275 -3 -3 -2
11214 569 33 -2.1019 5.29351773705671 7.9844083859861055 6.513109420139757 -2 -3 1
10931 522 32 -2.1019 6.741462867943566 13.5717252126516 6.565116969239759 4 -3 -1
3755 330 16 0.13 11.216017936178535 7.314912816054435 7.2342740299754285 -2 5 0
6544 562 21 0.24 6.146913836029164 11.617170045435863 11.432925775341669 0 0 -4
11172 562 33 -2.1019 5.969673516305341 11.159709774799058 12.26540130323303 0 0 -4
4457 389 10 2.1449 10.960929221670517 13.919842211114313 14.064083884659372 2 -3 3
3749 330 10 2.1449 11.069262911323088 8.38554207968135 7.091614252073805 -2 5 0
4918 427 15 1.6619 10.867313065776425 5.273183434150468 14.900658556925515 0 -3 0
9775 330 28 -2.4449 11.064720715012408 8.377030775422355 7.079205445966296 -2 5 0
6360 547 17 0.08 8.683425815152326 9.870519216245269 15.559473267797076 2 3 -1
11397 600 30 -1.7492 11.574703099511613 15.150699885855932 6.425372966165797 -3 -3 -2
1392 67 3 0.13 8.649931472066925 6.553636300371464 5.7746435644677225 4 0 0
3757 330 18 0.12 10.650793570616033 8.809898808671136 8.004253969231137 -2 5 0
4461 389 14 1.7919 10.844989377166579 15.622417761214946 11.821510848965092 2 -3 3
3756 330 17 0.08 10.279424904525738 8.576366911200454 6.365055885937842 -2 5 0
6622 569 15 1.6619 5.285026785204505 8.013031417977615 6.551656077435291 -2 -3 1
6538 562 15 1.6619 5.949527903441209 11.168336982805789 12.240781953057704 0 0 -4
6618 569 11 2.1281 5.318406795007263 9.453486361212388 6.424783917479449 -2 -3 1
4462 389 15 1.6619 10.277270385318136 15.818814874856457 15.367030799753136 2 -3 3
4458 389 11 2.1281 10.97965400842763 15.423677248150257 14.15295457099417 2 -3 3
6990 600 11 2.1281 12.305115037034035 15.459277108688616 7.706456563995536 -3 -3 -2
3924 344 17 0.08 6.999193343946516 13.822907310862387 14.031600903082394 3 -3 1
6991 600 12 2.1192 11.593515505767796 15.153876088958235 6.4178460860611874 -3 -3 -2
3809 335 10 2.1449 6.175267568361945 6.590735957707048 15.907000862576012 -4 3 -1
6061 522 18 0.12 5.822388600974993 15.280508903333885 9.339281798536659 4 -3 -1
11396 600 29 -2.0081 12.28821591808365 15.4541653293644 7.6847855161926555 -3 -3 -2
10927 522 28 -2.4449 6.843689796186316 15.592827444295454 9.086109913278861 4 -3 -1
1393 67 3 0.13 8.783923659977948 4.963381972006417 6.448420164487276 4 0 0
8128 694 21 0.24 11.897706560469361 5.445032934343805 10.114930879032638 2 2 -1
10134 389 33 -2.1019 10.266096381716684 15.780949400026376 15.367588327333225 2 -3 3
4459 389 12 2.1192 10.186408724208892 15.992526736889747 12.955556822956487 2 -3 3
4460 389 13 1.4661 8.916635987054319 16.14387844135433 12.925109261328576 2 -3 3
3921 344 14 1.7919 6.061497459442077 16.12432126536588 11.954493546876089 3 -3 1
9863 344 32 -2.1019 6.023805037378171 16.107798391097614 11.954236933880395 3 -3 1
10928 522 29 -2.0081 6.990980081559055 15.686236133609828 7.575876781300786 4 -3 -1
10131 389 30 -1.7492 10.15187883253027 15.99504299862036 12.977384268034077 2 -3 3
1391 67 3 0.13 7.2853283953106125 5.861113386311644 6.247494081828382 4 0 0
9864 344 33 -2.1019 4.940404095574555 16.119552676558868 15.349587077612467 3 -3 1
3816 335 17 0.08 5.120970183782405 6.480343431788804 16.16078958663239 -4 3 -1
10133 389 32 -2.1019 10.829523191036223 15.614454524344522 11.85733282989099 2 -3 3
10132 389 31 -1.8561 8.88197146910967 16.13916540089144 12.912262619526347 2 -3 3
10929 522 30 -1.7492 6.03945132104399 14.638110041280976 6.95894696939997 4 -3 -1
6054 522 11 2.1281 6.996068005337698 15.684336624640524 7.583659120787269 4 -3 -1
6055 522 12 2.1192 6.064589822766944 14.606291223336447 6.94588385202016 4 -3 -1
6060 522 17 0.08 7.538898993992337 14.840928309300569 9.459106355698335 4 -3 -1
6617 569 10 2.1449 4.954402754055295 9.821602162982508 5.058132560756359 -2 -3 1
6057 522 14 1.7919 6.752662732912366 13.532611034406482 6.542339987443499 4 -3 -1
3927 344 20 0.26 6.974971726910721 16.138316442819644 12.196145208003282 3 -3 1
6053 522 10 2.1449 6.837014913670214 15.58494476279223 9.08239053812641 4 -3 -1
3919 344 12 2.1192 5.216056757299635 15.521552221746168 12.794991379010604 3 -3 1
6459 555 20 0.26 9.408296637072032 13.53928940839981 5.3132578487780835 4 5 5
7000 600 21 0.24 10.776378087238733 15.917193879437821 8.809944781544708 -3 -3 -2
6993 600 14 1.7919 12.426667618767963 15.22035544919394 5.341273944689763 -3 -3 -2
11399 600 32 -2.1019 12.425151353417187 15.218245174852909 5.351841569637995 -3 -3 -2
6062 522 19 0.12 8.02891283637415 15.753470512171482 7.242248473510087 4 -3 -1
11209 569 28 -2.4449 4.954676466791533 9.790182915208144 5.063412217461953 -2 -3 1
3818 335 19 0.12 8.057696206020822 5.688965645743972 16.074901366991085 -4 3 -1
6453 555 14 1.7919 9.83618394930244 12.783684070847533 4.9404232107046795 4 5 5
3753 330 14 1.7919 13.430426013680107 8.932895540811272 9.03947865541697 -2 5 0
9779 330 32 -2.1019 13.420890813409844 8.931545909014124 8.989394237744195 -2 5 0
3759 330 20 0.26 14.116798280286964 8.667047321944025 9.632139099236744 -2 5 0
3751 330 12 2.1192 13.635321229965303 8.659882480667317 7.732783914523669 -2 5 0
9777 330 30 -1.7492 13.65753584480899 8.648022556139193 7.687898153566284 -2 5 0
3096 275 17 0.08 18.823481387050773 13.766615380092233 4.9868602118815 -4 2 -3
3760 330 21 0.24 13.296591859535532 8.135246735615786 5.408721136690705 -2 5 0
6997 600 18 0.12 13.363369936594179 13.568578894681789 8.089501857718158 -3 -3 -2
3754 330 15 1.6619 12.841618029940436 8.950461328189062 5.555255738462051 -2 5 0
9780 330 33 -2.1019 12.82338802592643 8.966448650893678 5.542401935041548 -2 5 0
2605 234 18 0.12 12.821978480327115 10.309919703059492 14.294039597011187 0 -2 2
2604 234 17 0.08 13.998903257216973 9.05158247299127 14.41839669944369 0 -2 2
4119 360 20 0.26 19.33416845848465 6.312018896506822 15.777847791115056 0 3 3
2602 234 15 1.6619 12.98656465697387 9.778593577388468 11.930263086221908 0 -2 2
2608 234 21 0.24 13.176015706199465 9.03165140935559 11.383233105447497 0 -2 2
9204 234 33 -2.1019 12.960039583367875 9.786857286032149 11.936894037392985 0 -2 2
2597 234 10 2.1449 13.854019459788857 10.064701859181204 14.043258312017796 0 -2 2
9199 234 28 -2.4449 13.864976675002877 10.063516561660498 14.022011988490922 0 -2 2
5811 501 20 0.26 14.077020259296958 16.18571785560313 11.639283101072884 4 -3 -1
5807 501 16 0.13 15.657070680164395 12.81240188910827 10.699587063205822 4 -3 -1
11395 600 28 -2.4449 13.55517186304294 14.625172865318138 7.891350457617266 -3 -3 -2
3752 330 13 1.4661 14.591793109546781 8.146925619399184 7.106494715057282 -2 5 0
9778 330 31 -1.8561 14.615114711617215 8.138387396582317 7.091350432774527 -2 5 0
3097 275 18 0.12 17.852163559445657 14.348037221366482 6.126529091078539 -4 2 -3
5808 501 17 0.08 17.3396238472268 12.552304832233784 11.210290372769734 4 -3 -1
2941 262 18 0.12 15.119037846973448 10.679931876674363 6.662805521385732 2 -1 5
5803 501 12 2.1192 14.873145106666067 14.533661253050164 12.552972150069976 4 -3 -1
5801 501 10 2.1449 16.520661979611592 13.271039298814891 11.181266789215869 4 -3 -1
3095 275 16 0.13 18.6434795970864 12.72816708480636 6.313676622140911 -4 2 -3
9445 275 28 -2.4449 18.78023463139254 13.786226949916461 6.047402676873737 -4 2 -3
8126 694 19 0.12 13.008227174651061 5.065682191221571 7.5247208184719465 2 2 -1
4923 427 20 0.26 13.548879926198584 7.084909470438106 11.963747862146032 0 -3 0
9202 234 31 -1.8561 15.104564648145667 8.53236839705572 11.107053459042062 0 -2 2
2600 234 13 1.4661 15.11241281792696 8.563220704008266 11.135481844979193 0 -2 2
10361 427 32 -2.1019 13.321100669983794 6.288654171456377 12.47236481885947 0 -3 0
4917 427 14 1.7919 13.340869256409809 6.299401722485983 12.446183754107796 0 -3 0
9370 262 31 -1.8561 18.91367056954588 9.859350103122596 6.342102260839296 2 -1 5
5812 501 21 0.24 16.116943207080745 13.108646645761823 14.289055105701944 4 -3 -1
5806 501 15 1.6619 16.170887955244435 12.736736782576292 13.421991434742726 4 -3 -1
10806 501 33 -2.1019 16.17834454948827 12.672192981740835 13.404511327503187 4 -3 -1
2599 234 12 2.1192 15.291558277715998 9.453633567248865 11.973162326613142 0 -2 2
9201 234 30 -1.7492 15.259031462172427 9.408823615108977 11.937751033283492 0 -2 2
2601 234 14 1.7919 16.565472909961695 9.930739562036745 12.301132333092342 0 -2 2
9203 234 32 -2.1019 16.52884921826134 9.888213429289317 12.283821067057278 0 -2 2
2607 234 20 0.26 16.5815375572099 10.682161940713119 12.873959330018135 0 -2 2
2606 234 19 0.12 14.217957429907052 11.352847857728637 12.35413049282977 0 -2 2
2940 262 17 0.08 15.162112148212803 11.29982622218526 8.275019810268565 2 -1 5
2939 262 16 0.13 16.17483515707405 12.055040133943548 6.96943419761335 2 -1 5
2933 262 10 2.1449 15.78615243166067 11.130993386859453 7.397418395041958 2 -1 5
9367 262 28 -2.4449 15.7758319725995 11.141159117307458 7.399732893688831 2 -1 5
7383 632 20 0.26 16.97227061789517 7.448749849704292 10.707919043048475 -4 -2 1
10802 501 29 -2.0081 16.208250587502093 13.843209032369176 12.52597388734846 4 -3 -1
7377 632 14 1.7919 17.90329285842658 7.296840141235786 10.651596759888076 -4 -2 1
7381 632 18 0.12 19.771434089403673 7.1211994175728615 8.379569858267502 -4 -2 1
11589 632 30 -1.7492 18.149817268410416 6.03889307578213 10.147833056113868 -4 -2 1
2603 234 16 0.13 14.539268697916278 10.702918692728971 14.601113680788892 0 -2 2
4113 360 14 1.7919 18.78296270983401 7.072285647990053 15.883736749740551 0 3 3
2598 234 11 2.1281 14.077438874706186 10.285020836993327 12.521774055866565 0 -2 2
9200 234 29 -2.0081 14.085022694122513 10.256625841679186 12.489128759487938 0 -2 2
4262 372 19 0.12 16.523738803217338 5.560499562132578 12.67222728298833 2 5 0
9372 262 33 -2.1019 17.978735387157347 10.954374472485155 8.5391693736615 2 -1 5
9369 262 30 -1.7492 17.69042246104497 9.718983216005858 6.567823461073219 2 -1 5
2935 262 12 2.1192 17.684960298321165 9.694811041232889 6.556400069453565 2 -1 5
2934 262 11 2.1281 17.0449972056011 10.32116800619067 7.806209267071795 2 -1 5
9368 262 29 -2.0081 17.04060855194032 10.317725908284942 7.788693953055909 2 -1 5
2942 262 19 0.12 16.736860689230532 9.545026505522682 8.50676998415674 2 -1 5
2938 262 15 1.6619 18.018690423642504 10.942025144313398 8.531827823538688 2 -1 5
11964 694 33 -2.1019 12.524444961854925 5.738542700303169 9.453060156044526 2 2 -1
2943 262 20 0.26 16.128733203223383 8.496731562505351 6.385864713901147 2 -1 5
2944 262 21 0.24 18.786044941983587 10.400289531627013 8.635399586406436 2 -1 5
11588 632 29 -2.0081 19.6579816354198 5.692906872503 10.099541156287266 -4 -2 1
7374 632 11 2.1281 19.680417765120147 5.698202724395155 10.088885920530199 -4 -2 1
9371 262 32 -2.1019 16.923076277348553 8.819726977363588 5.900696470228029 2 -1 5
7375 632 12 2.1192 18.156185249621043 6.054163736344446 10.166488858171768 -4 -2 1
11591 632 32 -2.1019 17.921111828422806 7.285365041167137 10.64841721860976 -4 -2 1
11590 632 31 -1.8561 17.31612249810888 5.276180374297543 9.72121638514777 -4 -2 1
7376 632 13 1.4661 17.328577649752738 5.286865876350447 9.724328338882097 -4 -2 1
6963 597 20 0.26 19.30670501106203 8.430196105584905 11.78650695395907 1 -3 0
11381 597 32 -2.1019 19.724337451420364 9.062907727966135 12.371534146459824 1 -3 0
6957 597 14 1.7919 19.71885373291204 9.045423076877356 12.373611711498398 1 -3 0
2936 262 13 1.4661 18.920028516140555 9.861566758599475 6.343144862414603 2 -1 5
9449 275 32 -2.1019 19.832381039981826 14.596067810295313 8.940574623503597 -4 2 -3
3093 275 14 1.7919 19.83645958374132 14.617593817916697 8.9759493173474 -4 2 -3
3089 275 10 2.1449 18.78279526783876 13.782794764809932 6.0759991511471885 -4 2 -3
2937 262 14 1.7919 16.893421123658793 8.790829569632448 5.914899481922426 2 -1 5
10801 501 28 -2.4449 16.52369925904815 13.257185798174783 11.189075992291691 4 -3 -1
5802 501 11 2.1281 16.209994316484647 13.8623918522891 12.521874908794981 4 -3 -1
4115 360 16 0.13 18.62162425501353 9.803311014829575 15.167017010459034 0 3 3
5810 501 19 0.12 16.99200971445042 14.516429713978898 12.907591527698635 4 -3 -1
5809 501 18 0.12 16.789433161886624 14.054786536037035 10.473016296341372 4 -3 -1
5804 501 13 1.4661 13.85296784344795 13.897780613948237 12.692618334720429 4 -3 -1
3672 323 17 0.08 18.05171436911722 15.206199181958127 14.818867559338647 -4 -1 0
3670 323 15 1.6619 16.291439670975596 14.145779572231245 16.024029583591776 -4 -1 0
10803 501 30 -1.7492 14.882179227392633 14.487513270658063 12.562659414336158 4 -3 -1
8122 694 15 1.6619 12.500400249405995 5.724792322035486 9.442964085604968 2 2 -1
10804 501 31 -1.8561 13.842013238295552 13.897158020707154 12.689608664282408 4 -3 -1
9959 360 32 -2.1019 18.759485307060217 7.119345554652475 15.930672779200325 0 3 3
9955 360 28 -2.4449 18.084283098196774 10.051545153240522 16.08578903862872 0 3 3
9738 323 33 -2.1019 16.302699934312745 14.12939317064 15.99219807573753 -4 -1 0
6989 600 10 2.1449 13.554503380425944 14.62351469289229 7.8927302975044045 -3 -3 -2
6995 600 16 0.13 14.086754676572745 14.951638840127384 8.785554587300004 -3 -3 -2
4263 372 20 0.26 15.789403980553374 5.864477427512281 15.815243139319149 2 5 0
6996 600 17 0.08 14.26316140612995 14.698152197046422 7.067893227882358 -3 -3 -2
5805 501 14 1.7919 14.866777971617553 15.738422544258162 11.902454820557516 4 -3 -1
10031 372 32 -2.1019 15.962003986801 5.888556015008075 14.88287159895023 2 5 0
4257 372 14 1.7919 15.966255118450269 5.8921277102652905 14.887346824206249 2 5 0
10805 501 32 -2.1019 14.879219322632489 15.697034574573086 11.918421687378569 4 -3 -1
3671 323 16 0.13 18.799374193130056 16.186221655122473 16.066698863628744 -4 -1 0
9733 323 28 -2.4449 18.431481987864903 15.1798255352983 15.823401919686171 -4 -1 0
3665 323 10 2.1449 18.422638595564123 15.188010619709033 15.843675113302766 -4 -1 0
4109 360 10 2.1449 18.094417100355248 10.042753158531891 16.090517639660373 0 3 3
4117 360 18 0.12 17.157635200588004 10.532733928068719 15.82501193022829 0 3 3
4922 427 19 0.12 12.915543822191324 5.0073349638238644 14.602191471369213 0 -3 0
3673 323 18 0.12 19.201858147114198 14.454852345432801 16.05203467529553 -4 -1 0
2446 221 15 1.6619 27.387328306026323 12.444147978191934 5.475966078560923 -1 -2 1
4391 383 16 0.13 23.046109569909216 10.488322244796507 6.3256907196511065 3 1 4
1754 84 3 0.13 25.10964142482941 7.084104226475942 15.276409707824822 -2 2 -1
1744 84 1 2.0273 24.864320420131346 5.1859403086676705 14.33516558696983 -2 2 -1
2531 228 16 0.13 23.779418199701322 5.2878865024494255 7.763804017298942 -2 -1 1
4387 383 12 2.1192 23.97162799973517 8.377944129961557 7.185776248082422 3 1 4
2450 221 19 0.12 26.83322082135397 11.150655372627085 7.0334837036902 -1 -2 1
8782 84 22 -1.9073 24.86189250605388 5.184087404314778 14.341132072056604 -2 2 -1
1764 84 8 0.418 22.17538766340082 5.875165874312858 15.585365140838356 -2 2 -1
9446 275 29 -2.0081 20.098911124925426 14.46213972743913 6.640571766254786 -4 2 -3
3098 275 19 0.12 20.05142131220526 15.555367713786556 6.588675099146239 -4 2 -3
6962 597 19 0.12 22.37720528953028 9.594107496043403 12.699896437070155 1 -3 0
3090 275 11 2.1281 20.08201938013587 14.467429445866424 6.6483336432150075 -4 2 -3
11378 597 29 -2.0081 21.65697562817281 10.375447210086504 12.436727762579967 1 -3 0
11919 687 30 -1.7492 21.158353467648464 15.668079204686405 13.95440608103882 7 4 5
8042 687 19 0.12 21.283415026225942 13.809203304167621 12.808138001957841 7 4 5
7380 632 17 0.08 21.248607590280695 6.699547328134568 9.321927611117225 -4 -2 1
8044 687 21 0.24 20.561087969980797 16.205800700322307 11.89898572387174 7 4 5
7382 632 19 0.12 20.11471159062471 6.166170369801895 10.97233751398836 -4 -2 1
7373 632 10 2.1449 20.3497605504161 6.3185340832094194 8.837164983409128 -4 -2 1
11587 632 28 -2.4449 20.34819396774642 6.302088153389035 8.858620569841797 -4 -2 1
7379 632 16 0.13 20.60535860065183 5.57461783123575 8.082577578182756 -4 -2 1
5240 454 13 1.4661 24.711502181202093 15.803046711864683 5.092798669071447 -3 3 -5
8038 687 15 1.6619 20.738925234758533 15.300392443730358 11.694928097587425 7 4 5
8035 687 12 2.1192 21.165880878509633 15.648961015794935 13.98314773140777 7 4 5
11922 687 33 -2.1019 20.740697801569468 15.285811728840198 11.661591104038905 7 4 5
11380 597 31 -1.8561 20.677527453024993 9.579751345571333 10.441693341907861 1 -3 0
3099 275 20 0.26 20.036854426646784 14.44828636616608 9.883807508727509 -4 2 -3
6954 597 11 2.1281 21.665027973888705 10.378072913470175 12.442368033982392 1 -3 0
6956 597 13 1.4661 20.68553035920658 9.588083421220654 10.436290911312033 1 -3 0
6959 597 16 0.13 20.738271501208278 10.644814856314834 14.495534828262647 1 -3 0
11379 597 30 -1.7492 20.5618675367124 9.835845625687012 11.618772682504268 1 -3 0
6955 597 12 2.1192 20.546698162915508 9.817078014593799 11.621592763159546 1 -3 0
1756 84 3 0.13 26.283602741145366 5.789284358017776 15.701320539409073 -2 2 -1
8962 162 27 -3.6401 20.36455680999519 4.943073649468859 14.363462921505544 -1 0 -2
6958 597 15 1.6619 22.50041330741751 11.312125134631891 11.676926596773942 1 -3 0
1747 84 2 2.2749 25.71858670170434 6.262856408532295 14.898454877196242 -2 2 -1
7849 671 18 0.12 26.305542857554492 5.480666958843555 7.183180160893137 1 1 -1
11377 597 28 -2.4449 21.179021495076793 11.23816161175008 13.657621640502295 1 -3 0
2530 228 15 1.6619 24.74012948763113 5.097483653407967 10.300194019961625 -2 -1 1
11918 687 29 -2.0081 21.547989242536215 14.868293974143137 12.709057030486592 7 4 5
8034 687 11 2.1281 21.56246017078397 14.857905301605475 12.705661032598554 7 4 5
11917 687 28 -2.4449 23.033496811948265 15.08474699666561 12.277055492541264 7 4 5
8033 687 10 2.1449 23.040847556661426 15.077854401189974 12.288528984329686 7 4 5
8040 687 17 0.08 23.20841846755132 14.924072126868886 11.222502908396251 7 4 5
8039 687 16 0.13 23.32944125296577 16.110671659144128 12.483716989347768 7 4 5
8041 687 18 0.12 23.75490303186187 14.48535096621924 12.860521021205773 7 4 5
6953 597 10 2.1449 21.178131540572046 11.204822380611375 13.670283259958433 1 -3 0
9447 275 30 -1.7492 20.395118794096184 13.809753710410527 8.019109034910478 -4 2 -3
3091 275 12 2.1192 20.386172724096944 13.821873224951817 8.055772774001573 -4 2 -3
6960 597 17 0.08 20.519232609034617 12.044046865396307 13.447398550434867 1 -3 0
6964 597 21 0.24 21.926705372643184 11.501516957235602 10.95025875202147 1 -3 0
11582 631 29 -2.0081 26.782539876171594 9.843786198468008 12.26478297590358 1 2 -3
6961 597 18 0.12 21.997706712362163 11.532015119622553 14.310074568298399 1 -3 0
10098 383 33 -2.1019 21.578200217081385 8.18081840240757 6.843300048217084 3 1 4
4390 383 15 1.6619 21.57873299082037 8.193344305397149 6.856030055287273 3 1 4
9450 275 33 -2.1019 21.166627191945175 14.093273503001368 5.782212658167466 -4 2 -3
9168 228 33 -2.1019 24.743157683246334 5.1249177545348505 10.309607663379435 -2 -1 1
7053 605 14 1.7919 25.27222815463202 12.034680032543587 8.722613419005171 -1 -8 2
1748 84 3 0.13 23.1134849655276 6.371901752903412 13.771778446751473 -2 2 -1
11382 597 33 -2.1019 22.514968710311006 11.333416406997488 11.693156599982503 1 -3 0
4394 383 19 0.12 22.871996710430412 7.650989352853926 5.53495019403299 3 1 4
11584 631 31 -1.8561 24.856043050225804 8.695291883598536 13.223617261905673 1 2 -3
7366 631 15 1.6619 26.520778522986454 10.92851647292949 13.085888190539585 1 2 -3
1746 84 2 2.2749 23.860932279228464 5.705947098212474 13.340567091337348 -2 2 -1
7363 631 12 2.1192 25.593579598286556 8.901714199140041 12.20638182664951 1 2 -3
3100 275 21 0.24 21.231280387738767 13.136111596409048 5.794059037955012 -4 2 -3
11583 631 30 -1.7492 25.598061888098133 8.924972430714014 12.25925762818761 1 2 -3
7049 605 10 2.1449 26.64426034140065 14.047207791432857 10.377634811494378 -1 -8 2
1750 84 3 0.13 24.319294479052886 6.307426764608931 12.555555141106339 -2 2 -1
8784 84 23 -2.4449 23.887729992437045 5.681344237689341 13.336526450890851 -2 2 -1
7370 631 19 0.12 27.033545392291344 10.314433955592051 11.307311006452917 1 2 -3
7364 631 13 1.4661 24.869510561157263 8.717728384892004 13.200485098312463 1 2 -3
1755 84 3 0.13 26.329108522532216 6.732553902567945 14.127245163537333 -2 2 -1
7372 631 21 0.24 25.706861492995177 10.801562226120016 13.548996919811756 1 2 -3
4396 383 21 0.24 21.429475899789963 8.836429778247322 7.532188332011884 3 1 4
7060 605 21 0.24 25.51199631818548 15.248564772521153 7.6591374909848655 -1 -8 2
11921 687 32 -2.1019 21.8160340198333 15.042027800258728 15.03656207681102 7 4 5
11426 605 29 -2.0081 26.370797648020854 14.085588021873471 8.834937617906489 -1 -8 2
8037 687 14 1.7919 21.819309979338247 15.038001298735677 15.06720691479614 7 4 5
7059 605 20 0.26 24.519184253852615 11.652539033140297 8.298402158007107 -1 -8 2
10094 383 29 -2.0081 22.84896042977274 8.478846173975285 6.248488779659816 3 1 4
11427 605 30 -1.7492 25.139185647800886 13.349285242292812 8.320794566363437 -1 -8 2
8043 687 20 0.26 21.688723299425433 15.532465846067119 15.86186328457177 7 4 5
11425 605 28 -2.4449 26.65281775372992 14.06772873194273 10.367526291378939 -1 -8 2
3094 275 15 1.6619 21.15651460007238 14.077688564032792 5.8239982317377255 -4 2 -3
7050 605 11 2.1281 26.368212344187352 14.06824466581806 8.847713518040175 -1 -8 2
8785 84 23 -2.4449 25.733960146360882 6.241121466963002 14.892854593232865 -2 2 -1
4392 383 17 0.08 21.699235125130183 9.931830739550424 5.153619585718405 3 1 4
7365 631 14 1.7919 25.47375946092517 8.108088427008694 11.12902028540534 1 2 -3
5247 454 20 0.26 22.98202493152992 15.774575373454873 6.4423527357231904 -3 3 -5
7362 631 11 2.1281 26.785878519335544 9.845960046811284 12.259844382538011 1 2 -3
10095 383 30 -1.7492 23.952979986693478 8.398505205945161 7.193878453648166 3 1 4
11585 631 32 -2.1019 25.462642706398952 8.122101897013685 11.197390774206337 1 2 -3
11430 605 33 -2.1019 26.123706528067082 15.375352477606162 8.401767834106618 -1 -8 2
7056 605 17 0.08 26.02578010199057 14.701560783553266 10.991976313354154 -1 -8 2
9448 275 31 -1.8561 20.691942151765222 12.65649896629505 8.169165068998225 -4 2 -3
9126 221 33 -2.1019 27.367703567774775 12.447301621681502 5.432088993151277 -1 -2 1
7371 631 20 0.26 26.16228290446348 8.18533140164631 10.486362384840538 1 2 -3