LAMMPS data file via write_data, version 29 Oct 2020, timestep = 30000000

11550 atoms
33 atom types
10890 bonds
28 bond types
11385 angles
25 angle types
13640 dihedrals
28 dihedral types

5.064133123329005 49.93586687670085 xlo xhi
5.064133123329005 49.93586687670085 ylo yhi
5.064133123329005 49.93586687670085 zlo zhi

Masses

1 13.607
2 11.611
3 1.008
4 11.611
5 11.611
6 1.008
7 15.599
8 1.008
9 35.05300000000003
10 11.611
11 11.611
12 11.611
13 15.599
14 15.599
15 15.599
16 1.008
17 1.008
18 1.008
19 1.008
20 1.008
21 1.008
22 0.4000000000000006
23 0.4
24 0.4
25 0.4
26 0.4
27 0.3999999999999965
28 0.4
29 0.4
30 0.4
31 0.4
32 0.4
33 0.4

Bond Coeffs # harmonic

1 382.003 1.448
2 339.986 1.09
3 267.925 1.529
4 320.005 1.41
5 553 0.945
6 267.997 1.529
7 340.01 1.09
8 340.01 1.09
9 340.01 1.09
10 316.993 1.522
11 320.005 1.41
12 340.01 1.09
13 570.005 1.229
14 450 1.364
15 553.011 0.945
16 553.011 0.945
17 500 0
18 500 0
19 500 0
20 500 0
21 500 0
22 500 0
23 500 0
24 500 0
25 500 0
26 500 0
27 500 0
28 500 0

Angle Coeffs # harmonic

1 51.8045 107.2
2 35.0024 109.5
3 32.9947 107.8
4 56.2022 109.5
5 37.5 110.7
6 50 109.5
7 35.0024 109.5
8 54.9952 108.5
9 37.5 110.7
10 37.5 110.7
11 37.5 110.7
12 33.0067 107.8
13 33.0067 107.8
14 33.0067 107.8
15 63.0019 111.1
16 50 109.5
17 37.5 110.7
18 51.6491 110.5
19 34.9904 109.5
20 34.9904 109.5
21 79.9952 120.4
22 70.0048 108
23 79.9952 121
24 34.9904 113
25 54.9952 108.5

Dihedral Coeffs # opls

1 0 0 0.55999 0
2 0.415989 -0.128011 0.695005 0
3 -1.013 -0.709011 0.472992 0
4 -10.5286 -1.29897 0 0
5 0 0 0.3 0
6 0 0 0.467997 0
7 -0.355999 -0.173996 0.491993 0
8 0 0 0.45 0
9 0 0 -0.1 0
10 0 0 0.467997 0
11 0 0 0.3 0
12 0 0 -0.1 0
13 0 0 0.467997 0
14 0 0 0.3 0
15 0 0 -0.1 0
16 0 0 0.467997 0
17 0 0 0.3 0
18 0 0 0 0
19 1 0.546009 0.45 0
20 0 0 0 0
21 9.50801 0 0 0
22 0 0 0 0
23 0 0 0 0
24 -0.355999 -0.173996 0.491993 0
25 -0.355999 -0.173996 0.491993 0
26 0 0 0.352008 0
27 1.5 5.5 0 0
28 0 5.5 0 0

Atoms # full

5801 493 16 0.13 10.108228564563042 12.863701083737777 11.903030590440583 -2 -2 4
5795 493 10 2.1449 10.439222010279796 11.848942589210822 11.682100824798098 -2 -2 4
10543 493 28 -2.4449 10.44192599432923 11.84245186827858 11.671503759961166 -2 -2 4
10544 493 29 -2.0081 9.741149608498086 11.307055423987844 10.369781302035507 -2 -2 4
5796 493 11 2.1281 9.743406271666403 11.3130136159638 10.386948997749041 -2 -2 4
5804 493 19 0.12 8.741272861139501 11.01526347142687 10.695463908534084 -2 -2 4
5800 493 15 1.6619 10.297069311081746 10.055213401135719 9.978613496095187 -2 -2 4
10548 493 33 -2.1019 10.31165173188371 10.037585040087349 9.994632861758776 -2 -2 4
5802 493 17 0.08 11.443522300301751 12.143432002912931 11.377538903134564 -2 -2 4
10545 493 30 -1.7492 9.688083347341232 12.321974420480991 9.240616583223677 -2 -2 4
5803 493 18 0.12 10.415416496139956 11.027421848562728 12.39809097240306 -2 -2 4
5797 493 12 2.1192 9.652634878190742 12.354333692510457 9.2542505779492 -2 -2 4
3712 319 15 1.6619 8.594422854163708 7.769051282693843 13.89224257489773 2 -3 -5
5806 493 21 0.24 10.196906701727919 10.046619582454202 9.03897278683866 -2 -2 4
10547 493 32 -2.1019 8.825639438764291 13.347711561773602 9.499895585233334 -2 -2 4
5799 493 14 1.7919 8.793865831231043 13.393264194194787 9.486804243013644 -2 -2 4
8438 142 29 -2.0081 7.975942307526784 6.797512156344101 10.356118711390478 3 2 0
1584 142 11 2.1281 7.980483616204991 6.784168129536916 10.355251071581044 3 2 0
9500 319 29 -2.0081 9.992901781497242 8.02402439664812 13.986276557970502 2 -3 -5
3839 330 10 2.1449 9.427766960779087 13.286076377700306 15.239257735295347 -1 -1 -1
10546 493 31 -1.8561 10.163784784584342 12.29487735142479 8.173158671056244 -2 -2 4
5798 493 13 1.4661 10.166553327246595 12.294518603785265 8.18754994780964 -2 -2 4
9565 330 28 -2.4449 9.432595738351509 13.289157957782953 15.241984935095774 -1 -1 -1
3709 319 12 2.1192 10.83861516781079 6.836607055186031 13.730869344803587 2 -3 -5
3708 319 11 2.1281 9.976770526890297 8.0424918239992 13.986805709202867 2 -3 -5
2841 246 20 0.26 11.751928652344533 8.382009338500414 10.347132737286913 -3 -9 -3
1590 142 17 0.08 8.28524382024122 5.466668791154979 11.999964969462377 3 2 0
9503 319 32 -2.1019 12.081032107283121 7.361187720964092 13.656572116414868 2 -3 -5
3711 319 14 1.7919 12.099057635418417 7.34432110755002 13.665478220253323 2 -3 -5
7613 644 16 0.13 7.714836821927184 14.685119749733769 11.426493826549802 2 1 -8
1592 142 19 0.12 8.212171673457169 6.9510065666304515 9.303304183350402 3 2 0
3846 330 17 0.08 9.23577992874737 13.914835505374512 14.369827498679996 -1 -1 -1
9863 379 32 -2.1019 12.522003214819824 12.260662121149682 5.402808287221081 0 -5 4
7607 644 10 2.1449 7.282260484887284 15.679244646215329 11.313801907274348 2 1 -8
3847 330 18 0.12 10.149955992468751 12.49882368486745 15.022967084980337 -1 -1 -1
11449 644 28 -2.4449 7.284264132184509 15.664512490376065 11.333840407376735 2 1 -8
9501 319 30 -1.7492 10.82279097611286 6.816557233427188 13.736092232606003 2 -3 -5
1591 142 18 0.12 9.751712541409526 5.549640235341983 11.094698681855636 3 2 0
9499 319 28 -2.4449 10.212263289276558 8.690792332937816 15.366775539932984 2 -3 -5
2020 178 15 1.6619 7.8661306396256805 16.095156425972327 8.03155795163881 -1 4 -1
3707 319 10 2.1449 10.225092979623062 8.693946935498206 15.365848695770723 2 -3 -5
3713 319 16 0.13 11.177528777427295 9.215547444193502 15.271515033000023 2 -3 -5
9504 319 33 -2.1019 8.59005119698295 7.789342757606006 13.932109684506825 2 -3 -5
5805 493 20 0.26 8.788119731985446 14.01898645693608 8.778660745092377 -2 -2 4
3710 319 13 1.4661 10.593638687087525 5.618369982259607 13.87590259655827 2 -3 -5
1588 142 15 1.6619 8.342892874801825 7.984710530933866 11.11260215540196 3 2 0
8442 142 33 -2.1019 8.37336840893296 7.985913339448404 11.130284190967629 3 2 0
1585 142 12 2.1192 6.4906865487064875 6.727527582775587 10.413866049213254 3 2 0
1594 142 21 0.24 7.898068349070469 8.704010699503781 10.690977743236951 3 2 0
9567 330 30 -1.7492 7.339825600925662 11.734540362274403 15.253628711784067 -1 -1 -1
3716 319 19 0.12 10.214824492424723 8.704574266077772 13.154290617795311 2 -3 -5
3841 330 12 2.1192 7.327249992775002 11.758081890807748 15.21950464577022 -1 -1 -1
8437 142 28 -2.4449 8.67468433821694 5.568203421223275 10.98532867966478 3 2 0
1583 142 10 2.1449 8.667472189723009 5.553094935416669 10.982844217224452 3 2 0
8439 142 30 -1.7492 6.507811631911771 6.761174924037212 10.438774553641784 3 2 0
9568 330 31 -1.8561 7.24337859610557 10.648184596253772 15.762484629868426 -1 -1 -1
3842 330 13 1.4661 7.251615045984866 10.673001686086954 15.762867242473499 -1 -1 -1
7738 654 21 0.24 12.428903426513585 12.639136929703383 13.189305029132711 -1 0 5
9566 330 29 -2.0081 8.097144278925425 12.842182177167007 15.984314443364175 -1 -1 -1
10006 403 31 -1.8561 6.700065746731548 12.730424448164605 6.777391594843504 -1 -1 3
4418 378 13 1.4661 5.805405151150634 10.61312899448595 11.731311638783625 3 4 1
3718 319 21 0.24 8.456459149651 7.63828544821081 12.966554823674521 2 -3 -5
3848 330 19 0.12 7.391894325765387 13.694421621665317 15.975996528329096 -1 -1 -1
3840 330 11 2.1281 8.091574232289068 12.858691179433867 15.986327247248035 -1 -1 -1
1586 142 13 1.4661 5.833535021286001 7.462697163632664 11.137465476886192 3 2 0
3849 330 20 0.26 6.9621558808882575 11.237546987759554 13.35259778257658 -1 -1 -1
9569 330 32 -2.1019 7.335907878640455 11.947587366908035 13.898252748861378 -1 -1 -1
3843 330 14 1.7919 7.317259124000922 11.948494196500247 13.863956941200072 -1 -1 -1
8440 142 31 -1.8561 5.820456563073965 7.468306726879618 11.129526605238722 3 2 0
4718 403 13 1.4661 6.699685199734659 12.735135692580853 6.763154927509193 -1 -1 3
4137 354 20 0.26 6.674042251435441 7.024937335426919 7.032488216189701 -2 2 2
9856 378 31 -1.8561 5.836268020508851 10.61150460131695 11.747200565546862 3 4 1
7616 644 19 0.12 8.264415843117566 16.176071981655664 13.265221150837222 2 1 -8
2021 178 16 0.13 9.478496995433012 15.949783660579119 5.9930976797137605 -1 4 -1
7615 644 18 0.12 6.261110418855519 15.611639793491488 10.938579723376565 2 1 -8
4426 378 21 0.24 5.665991804666945 12.442585951382881 11.682528187922028 3 4 1
7618 644 21 0.24 6.368944886290753 15.696051104479771 14.314984733852699 2 1 -8
2756 239 19 0.12 10.28756460713723 8.201059797378731 6.833226337306671 2 0 -6
9502 319 31 -1.8561 10.606698466637036 5.59441203791499 13.873531768982636 2 -3 -5
4717 403 12 2.1192 7.219832698889497 12.209773089917576 5.774176711333326 -1 -1 3
3183 275 14 1.7919 6.55642386113106 8.047895674813155 15.796636718590781 6 -1 2
9239 275 32 -2.1019 6.50874951529532 8.012354166990795 15.812391370862143 6 -1 2
9024 239 33 -2.1019 8.615564808645791 8.873297545657918 6.05885287181685 2 0 -6
3189 275 20 0.26 6.884567973828345 8.915548219095358 15.61628621657839 6 -1 2
11454 644 33 -2.1019 6.460039197566622 15.34105542851422 13.425811229206525 2 1 -8
7612 644 15 1.6619 6.4684042060915194 15.3637336477627 13.435952040432937 2 1 -8
2752 239 15 1.6619 8.641147767375337 8.895689297715585 6.044213637787413 2 0 -6
8658 178 33 -2.1019 7.8922961870900465 16.06654913572815 8.020099852431406 -1 4 -1
2748 239 11 2.1281 9.891093091141089 8.35836585261324 5.830148357649359 2 0 -6
2758 239 21 0.24 8.440871516211113 9.576724491671555 5.420427418381456 2 0 -6
9020 239 29 -2.0081 9.887245137820862 8.380422388287007 5.831231989806849 2 0 -6
8441 142 32 -2.1019 6.129160377239214 5.538609268170653 9.89836470326556 3 2 0
2754 239 17 0.08 9.089211035405707 6.393914490264768 5.9630024847033 2 0 -6
1593 142 20 0.26 5.160062480550926 5.471595351368199 10.009555251028008 3 2 0
3845 330 16 0.13 9.950157837013908 14.023212432743648 15.849041608356032 -1 -1 -1
2835 246 14 1.7919 12.503106921007168 7.8198294991989306 10.234378121581042 -3 -9 -3
9065 246 32 -2.1019 12.538858518194388 7.820812777423826 10.216443512119906 -3 -9 -3
4437 379 20 0.26 12.503143122993396 12.234233007619725 6.383245194912478 0 -5 4
6058 514 21 0.24 12.027776774424554 12.635349799150521 8.272317140111928 -6 4 -1
10005 403 30 -1.7492 7.183203874761346 12.230358488759556 5.761319199488882 -1 -1 3
4431 379 14 1.7919 12.534071543694804 12.239536799329674 5.438765804350828 0 -5 4
1587 142 14 1.7919 6.0949111316369 5.507920582976712 9.876254911493458 3 2 0
4719 403 14 1.7919 8.473467402602024 11.722737783660122 5.895158506166796 -1 -1 3
2757 239 20 0.26 12.31459286632637 8.08639526730104 5.552479029950251 2 0 -6
4421 378 16 0.13 6.059906642814594 11.858153429816387 9.037723789044724 3 4 1
4131 354 14 1.7919 6.010506173639202 7.609536441370142 6.699335016826491 -2 2 2
9862 379 31 -1.8561 10.98110578246299 13.979313632860407 5.384009713739099 0 -5 4
4430 379 13 1.4661 10.98382185081333 13.971056556218938 5.38159100820126 0 -5 4
4725 403 20 0.26 8.848437775200004 11.856148534198411 6.752260440003311 -1 -1 3
9713 354 32 -2.1019 5.970922815615943 7.5988908267387325 6.707248368278782 -2 2 2
3715 319 18 0.12 9.486193163030503 9.491038301801009 15.448167627379709 2 -3 -5
10007 403 32 -2.1019 8.429678492797008 11.730448956250283 5.8868127407099795 -1 -1 3
3181 275 12 2.1192 5.265252349255267 7.750945513917903 15.395054068391955 6 -1 2
5717 486 16 0.13 11.843488335872031 15.874879505887158 14.190140362915166 -4 -8 6
5719 486 18 0.12 10.925204720898188 16.173257545866036 15.677953284387655 -4 -8 6
7608 644 11 2.1281 7.310867933045455 16.251744180358912 12.742612517818673 2 1 -8
11450 644 29 -2.0081 7.304386762047729 16.259877735760124 12.754836733353656 2 1 -8
3714 319 17 0.08 10.128112978216603 8.007846754266707 16.20725567375926 2 -3 -5
9237 275 30 -1.7492 5.217519466551096 7.729355136520072 15.39395234193284 6 -1 2
1386 125 17 0.08 5.407863337652339 15.30448610835629 6.497940896933969 5 2 6
3188 275 19 0.12 5.4629993394360765 9.144537113639307 13.803593391052232 6 -1 2
2007 177 14 1.7919 12.316596812522773 16.215404121255947 8.007350103470962 -1 0 0
8651 177 32 -2.1019 12.324398444786109 16.244992883885356 7.953501458595147 -1 0 0
2747 239 10 2.1449 9.652919217115937 6.97478054059778 5.232979426840386 2 0 -6
9019 239 28 -2.4449 9.637573239965871 6.9963844609836325 5.231590790109539 2 0 -6
4726 403 21 0.24 5.134110567511742 13.050636683914622 5.118210443557885 -1 -1 3
5512 469 15 1.6619 12.607387592027727 6.214702468744721 6.80256787438962 0 4 3
7730 654 13 1.4661 12.639435233524607 10.56827449130022 13.258272119503658 -1 0 5
11512 654 31 -1.8561 12.632501168193752 10.561453328323303 13.252362026778115 -1 0 5
8652 177 33 -2.1019 14.889466470783074 15.781641261316233 5.530466330630603 -1 0 0
3717 319 20 0.26 12.596079016469567 6.541315181020249 13.631119419584367 2 -3 -5
7727 654 10 2.1449 13.281194747917189 12.727259482356908 16.083733890212635 -1 0 5
5530 470 21 0.24 17.043452818716002 16.21402480086735 15.786138316370026 -1 2 -2
11509 654 28 -2.4449 13.26352363260021 12.743125353528033 16.079669442831964 -1 0 5
11164 596 31 -1.8561 18.424177639161485 6.258811326801007 14.603696603372148 -2 1 -2
10404 469 33 -2.1019 12.583276353677912 6.2522292059387405 6.776975057421664 0 4 3
5518 469 21 0.24 13.29331340497459 6.406088271105842 7.423777795489265 0 4 3
7034 596 13 1.4661 18.442586354411706 6.2503509693572195 14.604104765981662 -2 1 -2
8782 199 31 -1.8561 13.42640868559164 6.096178740412707 15.957441067686629 10 3 0
7737 654 20 0.26 13.647166422333441 9.184165109381663 14.756527505509418 -1 0 5
11511 654 30 -1.7492 13.300226905377697 10.929075183474858 14.197278353455836 -1 0 5
7729 654 12 2.1192 13.319459363060774 10.906345222936073 14.217070984794438 -1 0 5
3543 305 14 1.7919 17.79992537187918 5.692764144873164 7.200432081979237 -3 -7 -1
11514 654 33 -2.1019 12.673141151279276 13.143694931143974 13.973464431533364 -1 0 5
7732 654 15 1.6619 12.68387828481338 13.112748065157335 13.966294439337926 -1 0 5
2838 246 17 0.08 16.087927950147876 9.056587309175066 11.27741733055818 -3 -9 -3
2270 199 13 1.4661 13.440200889359758 6.1025278395790075 15.968345972912072 10 3 0
8783 199 32 -2.1019 15.37203560052933 6.823744896335734 15.125950663712116 10 3 0
2839 246 18 0.12 14.486293403641152 8.868742662479336 12.055802788548247 -3 -9 -3
2271 199 14 1.7919 15.407954125136895 6.833195326370904 15.113113813748935 10 3 0
7736 654 19 0.12 14.582512313702345 12.536450600352 14.262466412603091 -1 0 5
3549 305 20 0.26 17.888567116744603 5.995076848344399 6.3094891374109245 -3 -7 -1
7731 654 14 1.7919 14.019888546707875 10.019419614999943 14.994141239043064 -1 0 5
11513 654 32 -2.1019 14.013317917575213 10.03755818915653 14.972487215548353 -1 0 5
11510 654 29 -2.0081 13.593720130245057 12.258172490549876 14.657515234024446 -1 0 5
7728 654 11 2.1281 13.605576834830227 12.26971339699134 14.665641180321906 -1 0 5
2834 246 13 1.4661 13.292114619857898 9.077774032561283 8.568687835908367 -3 -9 -3
9064 246 31 -1.8561 13.280862743692904 9.093337949483914 8.56691185069443 -3 -9 -3
6050 514 13 1.4661 13.367185784320588 14.682126042289626 9.699690677797836 -6 4 -1
10672 514 31 -1.8561 13.372481001681393 14.696608077071142 9.69187064171998 -6 4 -1
6057 514 20 0.26 14.40330433298022 14.002038523081378 11.82723318505467 -6 4 -1
2012 177 19 0.12 14.277428663152968 14.708936333412616 7.074489681168234 -1 0 0
2269 199 12 2.1192 14.627239357022232 6.302343389078973 16.078379321743384 10 3 0
9063 246 30 -1.7492 13.498051974407932 8.169472065731776 9.333898597797303 -3 -9 -3
2833 246 12 2.1192 13.46688862598021 8.150585504453568 9.351404481405876 -3 -9 -3
3547 305 18 0.12 18.551489090717318 5.727879599828997 9.674206394051268 -3 -7 -1
6049 514 12 2.1192 13.756287228158046 13.58617361815139 10.103963713401638 -6 4 -1
10671 514 30 -1.7492 13.73857297296591 13.61041298265369 10.07661805879189 -6 4 -1
8781 199 30 -1.7492 14.598117960700876 6.28990910056803 16.090020091974836 10 3 0
10674 514 33 -2.1019 12.965495158234152 12.712559788563647 8.016845179933943 -6 4 -1
6052 514 15 1.6619 12.94096377531131 12.711880170416524 8.041529514324303 -6 4 -1
6051 514 14 1.7919 14.402048868574427 13.254532801728361 11.24908220741285 -6 4 -1
10673 514 32 -2.1019 14.390000387384523 13.232101653492988 11.210762160480902 -6 4 -1
6048 514 11 2.1281 13.788997339800234 12.444355723880339 9.126862750398816 -6 4 -1
10670 514 29 -2.0081 13.784835666270325 12.465996476229428 9.136026089073718 -6 4 -1
2837 246 16 0.13 14.63400181436647 9.958808067859703 10.68833501120444 -3 -9 -3
9061 246 28 -2.4449 15.03243634761477 9.04025211876284 11.115804540129767 -3 -9 -3
2831 246 10 2.1449 15.010659895409322 9.028585736054865 11.113680964300842 -3 -9 -3
9062 246 29 -2.0081 14.823437871564325 7.920320218100902 10.030422140552712 -3 -9 -3
2832 246 11 2.1281 14.823524309103071 7.911970134850411 10.033738991625547 -3 -9 -3
3162 273 17 0.08 16.948224503350737 11.760483883816432 12.920049264515741 3 -2 -2
6053 514 16 0.13 15.764360559712006 11.712760296577198 9.469060043093746 -6 4 -1
2836 246 15 1.6619 15.844810585986172 8.09572450638033 9.1260139602641 -3 -9 -3
2842 246 21 0.24 15.798911390079166 7.514127417209544 8.382596124001049 -3 -9 -3
9066 246 33 -2.1019 15.870099375333018 8.115549913555254 9.140853626836014 -3 -9 -3
2840 246 19 0.12 14.880735288500212 6.9324326278989465 10.50843799361366 -3 -9 -3
2004 177 11 2.1281 14.394094110432274 15.772627628015327 6.866985880187401 -1 0 0
6054 514 17 0.08 15.732126168026038 12.620051643801292 8.005940487557316 -6 4 -1
6056 514 19 0.12 13.323233983427698 11.555162849550753 9.551725289531815 -6 4 -1
3166 273 21 0.24 16.33775408818253 9.764758831124293 14.818287749780183 3 -2 -2
11422 639 31 -1.8561 15.68721471134161 15.368467902971728 12.59534619275591 0 -1 2
9225 273 30 -1.7492 17.42871121075242 11.821388591081515 15.611225484464997 3 -2 -2
6055 514 18 0.12 14.966890585855822 11.145553535948451 7.9255352478880425 -6 4 -1
10669 514 28 -2.4449 15.114205729534401 11.977213138294603 8.620318827862661 -6 4 -1
6047 514 10 2.1449 15.120261273797114 11.965726815834177 8.626893499387082 -6 4 -1
7550 639 13 1.4661 15.703335799434644 15.376574683964897 12.585084285443534 0 -1 2
3157 273 12 2.1192 17.47399534134814 11.853642949492782 15.605843465582872 3 -2 -2
7549 639 12 2.1192 16.597941909239463 15.849725359420905 11.876747367191285 0 -1 2
11421 639 30 -1.7492 16.586072991401124 15.814673391508336 11.892583040303665 0 -1 2
9227 273 32 -2.1019 18.31934370705822 12.872475546161484 15.56094112844411 3 -2 -2
3159 273 14 1.7919 18.365304096815574 12.901965123172683 15.545370578790866 3 -2 -2
3165 273 20 0.26 19.13996572685385 12.758044975663292 15.02362883443806 3 -2 -2
9224 273 29 -2.0081 17.87620376386337 10.742116180166482 14.683568021047938 3 -2 -2
3156 273 11 2.1281 17.883838020185244 10.74298800225766 14.664218300328674 3 -2 -2
3164 273 19 0.12 18.9331032640925 10.593365105633413 14.918690197229187 3 -2 -2
7547 639 10 2.1449 18.2549590259239 14.618544482481044 10.373034766487407 0 -1 2
3161 273 16 0.13 18.714010716951325 11.643092268053252 13.001174513086315 3 -2 -2
7095 601 14 1.7919 18.432495791821843 12.453063993776796 6.592503268380364 4 3 5
11195 601 32 -2.1019 18.438270043516166 12.49580672330897 6.575419688956306 4 3 5
7101 601 20 0.26 18.523801604730313 12.265462473142271 7.514183880251229 4 3 5
7256 614 19 0.12 17.68368401189199 9.980941709467125 9.355236001644654 7 2 -1
9223 273 28 -2.4449 17.76651398272861 11.092929828562347 13.215905567595037 3 -2 -2
3155 273 10 2.1449 17.781066855892018 11.117287857937848 13.204265015824243 3 -2 -2
3163 273 18 0.12 17.613731674326065 10.213424341673036 12.618483536498424 3 -2 -2
7248 614 11 2.1281 18.75486721459529 10.082577445748036 9.18103880564116 7 2 -1
11270 614 29 -2.0081 18.76147095107535 10.114875571143145 9.18841942292064 7 2 -1
11274 614 33 -2.1019 18.79307584954239 11.519125792466753 9.166126991781338 7 2 -1
7252 614 15 1.6619 18.798133906438867 11.482348830231208 9.203021437590827 7 2 -1
7258 614 21 0.24 18.692399304923057 11.713059550311424 10.113306272782006 7 2 -1
11271 614 30 -1.7492 19.542029273529643 9.591989410846033 10.417554088155109 7 2 -1
7249 614 12 2.1192 19.540411364667293 9.55544303062862 10.426007990003853 7 2 -1
7548 639 11 2.1281 18.02227662756924 15.215896357100059 11.757906707265144 0 -1 2
11420 639 29 -2.0081 17.998774359100185 15.21683083003372 11.774631709143593 0 -1 2
11193 601 30 -1.7492 18.149562456686834 13.81837382567158 6.394586262458864 4 3 5
7093 601 12 2.1192 18.143699076913048 13.777588941747315 6.4021633457028555 4 3 5
7251 614 14 1.7919 19.349169623231262 8.258203323547207 10.619428476104861 7 2 -1
11273 614 32 -2.1019 19.349092200288755 8.297030507715016 10.597676092475872 7 2 -1
11194 601 31 -1.8561 18.37879875698225 14.596508469652688 7.377337051138656 4 3 5
11419 639 28 -2.4449 18.256218198732416 14.611464706132345 10.399135982720647 0 -1 2
7094 601 13 1.4661 18.380032811978037 14.589494413896752 7.357382149131099 4 3 5
7553 639 16 0.13 17.597633668669108 13.774283333281208 10.16505189147635 0 -1 2
9419 305 32 -2.1019 17.792775265623945 5.66877184637088 7.236788532161065 -3 -7 -1
7257 614 20 0.26 19.828770212844596 7.8939914484708815 11.347686099257487 7 2 -1
3160 273 15 1.6619 17.24226558858264 9.529407575176153 14.95792717317049 3 -2 -2
9228 273 33 -2.1019 17.244818455199447 9.502600803081835 14.947687586390972 3 -2 -2
11269 614 28 -2.4449 19.160980820829277 9.443289199884815 7.879591275845861 7 2 -1
7247 614 10 2.1449 19.160873609635118 9.430085246937507 7.876692289817379 7 2 -1
7253 614 16 0.13 18.49952908598058 9.72679584206538 7.062631620620519 7 2 -1
7552 639 15 1.6619 18.151833959522513 14.204029636558827 12.729341490281966 0 -1 2
11424 639 33 -2.1019 18.167393367744907 14.166354247507789 12.715438519599969 0 -1 2
7254 614 17 0.08 19.109869987223306 8.361226544185072 8.084170684410054 7 2 -1
2277 199 20 0.26 16.297145222213057 6.883245366886513 15.429119066131129 10 3 0
7554 639 17 0.08 19.295919049684823 14.315896782429629 10.259417347161655 0 -1 2
11163 596 30 -1.7492 19.530851090845022 6.168189555061268 15.145977490419332 -2 1 -2
7558 639 21 0.24 18.242427545967143 14.641185988362174 13.562235228914956 0 -1 2
7556 639 19 0.12 18.677860928185712 16.067149472341494 11.941417399725196 0 -1 2
7033 596 12 2.1192 19.56000195036219 6.188201372454666 15.151372532581753 -2 1 -2
10408 470 31 -1.8561 19.413948885246228 15.63550528752767 15.031909691732617 -1 2 -2
5522 470 13 1.4661 19.410127893747426 15.662593944444508 15.044382285577809 -1 2 -2
2013 177 20 0.26 12.713666735120132 15.685166319521205 8.681301367645998 -1 0 0
7555 639 18 0.12 17.96817835407635 15.385456028895927 9.653514851408998 0 -1 2
2008 177 15 1.6619 14.843898866282972 15.792013002037715 5.555905370648558 -1 0 0
8648 177 29 -2.0081 14.39686436448816 15.77538146153601 6.838332190517196 -1 0 0
1330 120 21 0.24 17.37176289686534 9.027448031586689 5.8409436559242875 2 -1 4
9226 273 31 -1.8561 16.392834035010257 11.835246844078682 16.224401674367495 3 -2 -2
3158 273 13 1.4661 16.421895308998113 11.830240035214604 16.212789001827982 3 -2 -2
8310 120 33 -2.1019 17.129097691758524 9.739232298796907 5.26236064650301 2 -1 4
1324 120 15 1.6619 17.12060947304394 9.718130795666424 5.246883647655138 2 -1 4
2009 177 16 0.13 15.112648438426667 16.275674811191625 8.861251296521466 -1 0 0
2011 177 18 0.12 16.42810259085628 16.135716367719056 7.754301306270307 -1 0 0
7735 654 18 0.12 13.410728410106568 13.80832282294601 16.134951739653356 -1 0 5
7102 601 21 0.24 17.38038796074568 15.742546285633821 5.457253093825902 4 3 5
9480 315 33 -2.1019 24.32493499323001 5.907416325207197 14.545310244791217 5 -5 -2
3679 316 18 0.12 26.677606203440014 10.190648202145304 11.626773052217107 -1 -5 3
6166 523 21 0.24 21.87138440431656 5.118855259351752 11.190784060896783 -3 1 -3
10615 505 28 -2.4449 24.421642823895745 15.779697360811262 10.41893865554228 6 4 5
7705 652 12 2.1192 24.09410863844265 9.05302602197638 5.415743863613257 0 6 0
10019 405 32 -2.1019 25.057409198693612 12.494308980748954 15.935712905088884 -1 -5 2
9483 316 30 -1.7492 27.07920263355079 13.293098049475455 11.571537250875325 -1 -5 3
10015 405 28 -2.4449 24.783594903469975 9.321207173622517 15.516918479798841 -1 -5 2
4746 405 17 0.08 23.724169884900483 9.50521632632055 15.300848134611714 -1 -5 2
4749 405 20 0.26 24.458578615729387 13.250647600169412 15.996864723156952 -1 -5 2
6159 523 14 1.7919 23.392410618681954 8.445172816716699 12.007345785631227 -3 1 -3
7041 596 20 0.26 20.282982883390606 7.787052875913814 14.342701452708365 -2 1 -2
3673 316 12 2.1192 27.095438323121446 13.297578820191273 11.540049393995659 -1 -5 3
3674 316 13 1.4661 26.457245971282585 14.111919261787374 12.224187925873242 -1 -5 3
6990 592 17 0.08 23.069705602227824 11.918764252209057 5.886526982374347 6 -1 -1
3659 315 10 2.1449 26.66263123538654 5.584393239896531 14.272399283796178 5 -5 -2
11212 604 31 -1.8561 23.57963090560704 14.805568824557412 16.114329686351606 0 -1 0
10048 410 31 -1.8561 26.8210443695204 9.387572849107592 7.839449898013066 -1 2 1
11498 652 29 -2.0081 22.592563035353333 8.836379156302968 5.256427136313588 0 6 0
5939 505 10 2.1449 24.437263984948643 15.789324995983717 10.415203743520411 6 4 5
7710 652 17 0.08 21.31498905951002 7.194035262774321 5.357029536768631 0 6 0
6164 523 19 0.12 24.338732650775555 6.250214259398657 10.87976888634554 -3 1 -3
3947 339 10 2.1449 23.038824112223914 12.99744542238925 11.90001503697248 0 -6 5
7707 652 14 1.7919 24.525782950569372 8.875738834549887 6.710199150912005 0 6 0
11499 652 30 -1.7492 24.091741823303398 9.056686762753134 5.372104665078424 0 6 0
4802 410 13 1.4661 26.82644211256747 9.407808473491116 7.842823340457411 -1 2 1
11213 604 32 -2.1019 24.351871545704245 15.745382435479426 14.219352904098306 0 -1 0
6986 592 13 1.4661 22.259571021603588 10.966494965391867 8.49470368744483 6 -1 -1
11140 592 31 -1.8561 22.256134538531505 10.948341976383807 8.484688655589911 6 -1 -1
9475 315 28 -2.4449 26.65968441326624 5.588510421733881 14.260198639921313 5 -5 -2
4747 405 18 0.12 24.990229065464074 8.288212040242009 15.750416681160157 -1 -5 2
3665 315 16 0.13 26.89886912410458 6.627060145785192 14.484853327229331 5 -5 -2
9476 315 29 -2.0081 25.436989762753658 5.195839342514953 15.085300663850923 5 -5 -2
11497 652 28 -2.4449 22.312117884429806 7.454429648859108 5.733368478784211 0 6 0
3664 315 15 1.6619 24.316579932522938 5.898731242606673 14.568467211071852 5 -5 -2
9619 339 28 -2.4449 23.044697763929307 12.97117006112851 11.916686627702777 0 -6 5
5942 505 13 1.4661 23.034630592303376 15.968740061731333 7.299116767088969 6 4 5
6162 523 17 0.08 23.76685589308378 7.780377067520133 9.11770665665637 -3 1 -3
7711 652 18 0.12 22.321177155421044 7.292435678730377 6.817669488052457 0 6 0
7131 604 14 1.7919 24.359718673864318 15.73647878241945 14.18219873903175 0 -1 0
3949 339 12 2.1192 21.24305466841217 12.87446443762429 13.710813888217077 0 -6 5
9623 339 32 -2.1019 21.741326377443297 14.078711843527367 14.02296743343841 0 -6 5
7130 604 13 1.4661 23.58967252405609 14.818201097240692 16.114977347988525 0 -1 0
11139 592 30 -1.7492 22.265730046872758 12.219044322321865 8.35766430070811 6 -1 -1
4743 405 14 1.7919 25.060771143256552 12.524840338714334 15.936899047423115 -1 -5 2
3950 339 13 1.4661 20.620743362991373 12.313562483609477 14.585429496005363 0 -6 5
9620 339 29 -2.0081 22.473194591062565 12.290298962014239 13.148908414531217 0 -6 5
7035 596 14 1.7919 20.614991777747015 7.079402125390251 14.873765819740413 -2 1 -2
9484 316 31 -1.8561 26.436852956184918 14.119013727191257 12.224987113088813 -1 -5 3
5950 505 21 0.24 21.591950197552624 15.300240098935355 9.089128320824612 6 4 5
6985 592 12 2.1192 22.23613079986597 12.243225659725557 8.362031685568462 6 -1 -1
7704 652 11 2.1281 22.584225407659194 8.817392241514991 5.27388978616054 0 6 0
11141 592 32 -2.1019 21.155585927131195 12.986661391112117 8.338782790145125 6 -1 -1
10728 523 33 -2.1019 22.71455996362751 5.130329462011916 10.71441323609563 -3 1 -3
4745 405 16 0.13 25.306497337404565 9.738176569817472 14.645919079495297 -1 -5 2
3958 339 21 0.24 21.477698194853097 10.754761208078612 12.577889908249098 0 -6 5
11272 614 31 -1.8561 20.06004808408253 10.29696518828497 11.227303382807289 7 2 -1
3956 339 19 0.12 23.31733481995425 12.312969674936946 13.838683465477695 0 -6 5
7250 614 13 1.4661 20.06956784382348 10.291854007334766 11.210592821494025 7 2 -1
3670 315 21 0.24 23.579127316211746 5.624275285844636 15.091790480225717 5 -5 -2
6987 592 14 1.7919 21.118189680900542 13.001529164314151 8.354395096252413 6 -1 -1
8821 206 28 -2.4449 26.841331225233805 15.359736973511426 5.385195261825112 2 0 -2
11211 604 30 -1.7492 23.993220560021044 15.726910279002066 15.51929881158119 0 -1 0
10727 523 32 -2.1019 23.38282414793063 8.40467153165891 11.992143411833714 -3 1 -3
6984 592 11 2.1281 23.436153903543 12.959914741161501 7.766903885686602 6 -1 -1
7713 652 20 0.26 25.452612315963272 8.868998920126408 6.894501697895338 0 6 0
6993 592 20 0.26 20.367487284901042 12.49851541504615 8.6308982651893 6 -1 -1
5945 505 16 0.13 24.68888318138805 14.834499803807333 9.953570628214703 6 4 5
10049 410 32 -2.1019 26.914335710767585 11.085040348479014 6.290792666085806 -1 2 1
3953 339 16 0.13 23.977764718704584 12.509172734080131 11.63908570934723 0 -6 5
6156 523 11 2.1281 23.28386380268071 6.451553595252345 10.69318087462702 -3 1 -3
11138 592 29 -2.0081 23.442815440154806 12.94219715952843 7.780338394781249 6 -1 -1
11165 596 32 -2.1019 20.607305945138016 7.055616998374623 14.896392340612971 -2 1 -2
6991 592 18 0.12 24.231258698096273 13.266961657225757 5.748525954407174 6 -1 -1
4739 405 10 2.1449 24.77976653155387 9.329982507124116 15.50849459226088 -1 -5 2
7129 604 12 2.1192 23.996706915838462 15.741542927106808 15.481762940279674 0 -1 0
4803 410 14 1.7919 26.882469593979867 11.108951335359034 6.278983523956534 -1 2 1
9622 339 31 -1.8561 20.60801984677976 12.302083746106733 14.600250599900722 0 -6 5
10726 523 31 -1.8561 21.517916994238377 7.200961628973366 12.302150093644569 -3 1 -3
10725 523 30 -1.7492 22.616149261797702 7.358704641290777 11.734500350530043 -3 1 -3