LAMMPS data file via write_data, version 29 Oct 2020, timestep = 24000000

14400 atoms
33 atom types
13500 bonds
28 bond types
16200 angles
25 angle types
20400 dihedrals
28 dihedral types

4.174424500016582 50.825575500064396 xlo xhi
4.174424500016582 50.825575500064396 ylo yhi
4.174424500016582 50.825575500064396 zlo zhi

Masses

1 13.607
2 11.611
3 1.008
4 11.611
5 11.611
6 1.008
7 15.599
8 1.008
9 35.05300000000003
10 11.611
11 11.611
12 11.611
13 15.599
14 15.599
15 15.599
16 1.008
17 1.008
18 1.008
19 1.008
20 1.008
21 1.008
22 0.4000000000000006
23 0.4
24 0.4
25 0.4
26 0.4
27 0.3999999999999965
28 0.4
29 0.4
30 0.4
31 0.4
32 0.4
33 0.4

Bond Coeffs # harmonic

1 382.003 1.448
2 339.986 1.09
3 267.925 1.529
4 320.005 1.41
5 553 0.945
6 267.997 1.529
7 340.01 1.09
8 340.01 1.09
9 340.01 1.09
10 316.993 1.522
11 320.005 1.41
12 340.01 1.09
13 570.005 1.229
14 450 1.364
15 553.011 0.945
16 553.011 0.945
17 500 0
18 500 0
19 500 0
20 500 0
21 500 0
22 500 0
23 500 0
24 500 0
25 500 0
26 500 0
27 500 0
28 500 0

Angle Coeffs # harmonic

1 51.8045 107.2
2 35.0024 109.5
3 32.9947 107.8
4 56.2022 109.5
5 37.5 110.7
6 50 109.5
7 35.0024 109.5
8 54.9952 108.5
9 37.5 110.7
10 37.5 110.7
11 37.5 110.7
12 33.0067 107.8
13 33.0067 107.8
14 33.0067 107.8
15 63.0019 111.1
16 50 109.5
17 37.5 110.7
18 51.6491 110.5
19 34.9904 109.5
20 34.9904 109.5
21 79.9952 120.4
22 70.0048 108
23 79.9952 121
24 34.9904 113
25 54.9952 108.5

Dihedral Coeffs # opls

1 0 0 0.55999 0
2 0.415989 -0.128011 0.695005 0
3 -1.013 -0.709011 0.472992 0
4 -10.5286 -1.29897 0 0
5 0 0 0.3 0
6 0 0 0.467997 0
7 -0.355999 -0.173996 0.491993 0
8 0 0 0.45 0
9 0 0 -0.1 0
10 0 0 0.467997 0
11 0 0 0.3 0
12 0 0 -0.1 0
13 0 0 0.467997 0
14 0 0 0.3 0
15 0 0 -0.1 0
16 0 0 0.467997 0
17 0 0 0.3 0
18 0 0 0 0
19 1 0.546009 0.45 0
20 0 0 0 0
21 9.50801 0 0 0
22 0 0 0 0
23 0 0 0 0
24 -0.355999 -0.173996 0.491993 0
25 -0.355999 -0.173996 0.491993 0
26 0 0 0.352008 0
27 1.5 5.5 0 0
28 0 5.5 0 0

Atoms # full

12806 635 29 -2.0081 10.021274196115392 7.210126045826718 13.197891523133642 -1 1 2
8831 786 20 0.26 6.876336617508866 5.655972093701509 7.79448579432429 0 1 1
7010 635 11 2.1281 10.002163835442495 7.181499734571367 13.210166122865335 -1 1 2
7018 635 19 0.12 10.635028405664467 6.451459989745922 12.70556927299468 -1 1 2
8825 786 14 1.7919 7.70887455944426 5.675251456179377 7.347798395649057 0 1 1
13715 786 32 -2.1019 7.760309361543019 5.700611052852318 7.318800711553715 0 1 1
12810 635 33 -2.1019 10.01683390854121 7.132628035651151 14.617047650729269 -1 1 2
7014 635 15 1.6619 10.051288709851292 7.156859434176184 14.613940375967111 -1 1 2
7009 635 10 2.1449 8.5187313004344 6.744763839757812 13.033695938193745 -1 1 2
12805 635 28 -2.4449 8.544415056038671 6.735848868192127 13.041576531076739 -1 1 2
7015 635 16 0.13 8.216617133307349 6.64056440825714 11.991601775315818 -1 1 2
12807 635 30 -1.7492 10.284516996564179 8.5728494722392 12.695577833241831 -1 1 2
7011 635 12 2.1192 10.286199762173043 8.550229062314916 12.661752524458956 -1 1 2
12808 635 31 -1.8561 10.559073495612145 9.692843390313937 13.178939269484514 -1 1 2
7012 635 13 1.4661 10.551437818074664 9.668314389476718 13.175152291416868 -1 1 2
7017 635 18 0.12 8.192569018258084 5.888590982687776 13.624187104446108 -1 1 2
8822 786 11 2.1281 7.126324555568048 8.022147501979816 7.616503818066279 0 1 1
7020 635 21 0.24 10.867438354654308 7.521434810771132 14.920550794490593 -1 1 2
8823 786 12 2.1192 8.162214626095846 6.977439921086402 7.272137086467489 0 1 1
13713 786 30 -1.7492 8.177963678259623 7.016859705612008 7.260036712442658 0 1 1
8830 786 19 0.12 6.698188431396987 7.806875742077831 8.59551062041704 0 1 1
13712 786 29 -2.0081 7.151116318852636 8.034915004056193 7.60434126530576 0 1 1
8824 786 13 1.4661 9.287653404690927 7.185922780957602 6.780667378044538 0 1 1
13714 786 31 -1.8561 9.311921399933976 7.177401447908196 6.778705488528379 0 1 1
1061 51 3 0.13 7.644620542661743 11.419555536633274 11.735357626505834 0 0 0
8826 786 15 1.6619 7.629949882124699 9.339609807290483 7.557592954721047 0 1 1
12353 353 27 -3.6401 5.039836473347085 5.807137200050994 8.789186667714112 0 0 0
6353 353 9 2.6401 5.003361408843397 5.759634636115431 8.766210548684477 0 0 0
1057 51 3 0.13 5.78358723158306 10.681899757151104 13.538843376074226 0 0 0
13716 786 33 -2.1019 7.614577076148074 9.376294632474952 7.56803216704112 0 1 1
9801 867 18 0.12 10.55990658323089 15.116004457337734 8.20153774758299 0 -1 0
1053 51 2 2.2749 5.372754496591782 10.144125464463144 12.684374580747496 0 0 0
9797 867 14 1.7919 9.229986072484648 11.897563228562925 7.451452839111253 0 -1 0
14201 867 32 -2.1019 9.219806968618471 11.950893563289466 7.455639940882992 0 -1 0
10553 51 23 -2.4449 5.379153108726708 10.203211968093427 12.656315470386835 0 0 0
1055 51 3 0.13 5.636573784693348 9.093835131787298 12.808402890076215 0 0 0
8821 786 10 2.1449 6.0956047871458505 8.098175031877176 6.469771265975526 0 1 1
13711 786 28 -2.4449 6.094086966364878 8.128638239403575 6.464285534269532 0 1 1
1066 51 5 2.5824 4.924245171486134 8.492236396198829 10.360252018471257 0 0 0
10551 51 22 -1.9073 5.7304646687681355 10.745318831535364 11.346027110446093 0 0 0
9368 831 17 0.08 7.135389363846768 10.68757734183184 5.372103548067472 0 -2 1
1062 51 3 0.13 7.577712244076916 10.750713382888975 10.180972001439052 0 0 0
1051 51 1 2.0273 5.719734738548657 10.728609853953314 11.359718011312054 0 0 0
8469 756 18 0.12 10.608921487368935 11.249440463281628 10.899500534460682 0 1 -1
1060 51 3 0.13 5.764776360359705 12.705125197666906 12.13970339181714 0 0 0
1070 51 7 1.4189 6.0627616170770136 7.718377553494049 10.810541460655685 0 0 0
1063 51 3 0.13 7.689193851184658 9.668183046306602 11.574250121597618 0 0 0
1071 51 8 0.418 5.877713255270802 6.892610335606299 10.389966088996369 0 0 0
1054 51 2 2.2749 7.21786646216104 10.5747637290706 11.194701139839644 0 0 0
10554 51 23 -2.4449 7.220989613721205 10.592465124570165 11.205291137935975 0 0 0
14199 867 30 -1.7492 8.634909457050647 13.087098979822608 7.739529831954913 0 -1 0
8470 756 19 0.12 10.404285284550872 12.801333289858103 13.012474151562202 0 1 -1
8828 786 17 0.08 6.637528454035814 7.839491094067425 5.560103790347666 0 1 1
10556 51 25 -2.3074 4.959367807933838 8.51028250529005 10.399660827035692 0 0 0
8466 756 15 1.6619 9.10265993300969 13.238124466378057 11.479281047787099 0 1 -1
9795 867 12 2.1192 8.652351106146929 13.049913588629138 7.724919397724426 0 -1 0
1064 51 4 2.0672 5.008527788553937 10.035985481305865 10.319457562504542 0 0 0
13531 756 28 -2.4449 11.116270616781529 12.22265221966747 10.93311544404881 0 1 -1
8461 756 10 2.1449 11.137632502356839 12.202035865946442 10.932925609007825 0 1 -1
9803 867 20 0.26 9.047169391993222 11.28572882965446 8.148057584387393 0 -1 0
10555 51 24 -2.2372 5.036357864977967 10.030257211655979 10.344661891811738 0 0 0
8827 786 16 0.13 5.335755857933048 7.368302976588003 6.749070131282974 0 1 1
10557 51 26 -2.1019 6.105837889721637 7.735892850222645 10.844506661788706 0 0 0
8462 756 11 2.1281 10.46609431275998 13.129516707573579 11.974893824527106 0 1 -1
13532 756 29 -2.0081 10.4494486446235 13.153749151262588 11.984121798819825 0 1 -1
13536 756 33 -2.1019 9.072607189237871 13.21834883283803 11.477183959251297 0 1 -1
1059 51 3 0.13 5.414312995159745 12.520311326825293 10.398786676966944 0 0 0
8832 786 21 0.24 8.180573901183791 9.422503809068939 6.794072710884807 0 1 1
8472 756 21 0.24 9.080466465223052 13.571247845783915 10.595224184983223 0 1 -1
1052 51 2 2.2749 5.282211517174621 12.08101929142512 11.38755656585006 0 0 0
10552 51 23 -2.4449 5.280463792662422 12.076759652090429 11.38545239668069 0 0 0
1058 51 3 0.13 4.287864878658187 12.178804745453856 11.823224927505102 0 0 0
7016 635 17 0.08 7.975228291807332 7.5439585516411345 13.537670596359735 -1 1 2
14200 867 31 -1.8561 7.621163500552655 13.16813965848068 8.428572198327261 0 -1 0
9735 862 12 2.1192 10.063201870499098 4.504689746623178 8.951001059172079 0 1 0
13981 831 28 -2.4449 7.714241102031046 11.06129776545599 4.5177792125583 0 -2 1
9361 831 10 2.1449 7.7148251586958025 11.034306488623097 4.516458466693412 0 -2 1
1067 51 3 0.13 5.309410866257897 10.279771111518071 9.300569929937858 0 0 0
8178 732 15 1.6619 11.387110775174364 9.599306809918346 8.351368333449718 2 1 0
13392 732 33 -2.1019 11.388581232771411 9.603323710419591 8.381463186158207 2 1 0
13986 831 33 -2.1019 6.9988319351545005 13.247568741412504 4.59363686589665 0 -2 1
9366 831 15 1.6619 6.975721063134789 13.210832761981369 4.558581572251698 0 -2 1
8184 732 21 0.24 10.849931817262796 8.92321152215439 7.967504227091512 2 1 0
8176 732 13 1.4661 10.693300072965096 9.865357221857392 5.773464044305326 2 1 0
13390 732 31 -1.8561 10.688927637660854 9.877068076418478 5.7645904689334895 2 1 0
9802 867 19 0.12 9.300530150723034 13.950328931982654 5.8851373413903385 0 -1 0
7013 635 14 1.7919 10.238126945159099 8.504751476713281 11.301088478977782 -1 1 2
12809 635 32 -2.1019 10.23220336806725 8.518196607808152 11.331059888029763 -1 1 2
13533 756 30 -1.7492 11.178369570512634 14.487047058723675 11.824779271788673 0 1 -1
8463 756 12 2.1192 11.194972517756506 14.49455360197703 11.854512089037554 0 1 -1
9265 823 10 2.1449 7.371413849206512 12.458344711507005 15.100474119989931 -1 2 0
9793 867 10 2.1449 10.575257939825242 14.689178924029978 7.198699472654225 0 -1 0
9798 867 15 1.6619 8.329564464639294 15.406391696542897 6.779130982133701 0 -1 0
14197 867 28 -2.4449 10.562846795390659 14.708758501586708 7.196410809856677 0 -1 0
12347 347 27 -3.6401 4.6876160841900525 8.015291209764104 15.154051747508033 1 1 0
6347 347 9 2.6401 4.670797081625986 8.020494000299978 15.120728143995457 1 1 0
7019 635 20 0.26 10.093867821739705 7.599183258951163 11.072715885072169 -1 1 2
9796 867 13 1.4661 7.638521952335179 13.175076225865137 8.419863875379573 0 -1 0
7517 677 14 1.7919 4.911164627944592 13.535601536907492 7.061692224891881 0 -1 0
9800 867 17 0.08 11.190906756792465 13.793812512863845 7.2846674995425715 0 -1 0
8829 786 18 0.12 5.735633410120375 9.126947791655347 6.457729911367416 0 1 1
13061 677 32 -2.1019 4.869693499582706 13.529124663288442 7.072394257010018 0 -1 0
14198 867 29 -2.0081 9.154187269813788 14.299929142591353 6.928104586244373 0 -1 0
9794 867 11 2.1281 9.16966409983404 14.284930518138811 6.914218180808126 0 -1 0
7523 677 20 0.26 5.703533612718667 13.02067697696491 7.056546976246998 0 -1 0
8464 756 13 1.4661 10.832438454216499 15.416256351565725 11.125476064571131 0 1 -1
249 12 6 0.06 5.987237647136807 5.004160510669061 11.993986614881823 1 1 0
9272 823 17 0.08 8.078323042421262 12.986543812459622 14.460643837893334 -1 2 0
14168 862 29 -2.0081 11.282980120588205 4.891764529141782 8.23554484280903 0 1 0
9671 856 20 0.26 11.713801155237825 10.263437300363012 14.546553775018912 0 -1 1
9369 831 18 0.12 8.644898349887338 11.472576013433322 4.878377113985314 0 -2 1
14169 862 30 -1.7492 10.082968078429836 4.543918625541338 8.993287133931034 0 1 0
9799 867 16 0.13 11.075586160486054 15.377605316170573 6.517642814963693 0 -1 0
14202 867 33 -2.1019 8.3426279990102 15.45237901747865 6.784016345336241 0 -1 0
13933 823 28 -2.4449 7.353831822045642 12.450670951210073 15.105923924972748 -1 2 0
9837 870 18 0.12 10.777756297670365 6.349893982299733 4.6446153954966665 1 2 0
9271 823 16 0.13 7.6731145455409795 11.411397700096007 15.069304250171031 -1 2 0
9804 867 21 0.24 7.588273354971831 15.176905937189254 6.2398336855558325 0 -1 0
9742 862 19 0.12 11.036486634303717 5.007307762143845 7.166272228287339 0 1 0
8468 756 17 0.08 11.105286611164193 12.667189944650296 9.947695100686985 0 1 -1
9372 831 21 0.24 6.073460118563825 13.228454994518387 4.839000621892271 0 -2 1
1068 51 6 0.06 4.746508949240936 8.220248695609037 9.319808296946892 0 0 0
14172 862 33 -2.1019 11.79153885929192 6.161784710532254 8.78942051495709 0 1 0
9738 862 15 1.6619 11.757063319475092 6.154789042258358 8.786883971886423 0 1 0
8175 732 12 2.1192 11.885767360583616 9.822421553105373 5.9910621084118425 2 1 0
13389 732 30 -1.7492 11.869262024204883 9.810470828589125 6.010594860734514 2 1 0
9744 862 21 0.24 11.095470897988715 6.829144164768595 8.763169960585756 0 1 0
6726 611 15 1.6619 6.306200986913712 15.374685951832648 10.890134668605851 -1 0 0
9829 870 10 2.1449 11.801747492024894 6.616950184864336 4.383434882932156 1 2 0
6635 603 20 0.26 4.327660889203219 15.429411052808 12.509422608618642 -1 0 1
10283 12 25 -2.3074 5.075963334783161 4.3699373225080524 11.9823306385402 1 1 0
1056 51 3 0.13 4.298249631337499 10.018757777580632 12.817845031971698 0 0 0
6732 611 21 0.24 6.861991745088546 14.746445876703248 11.325374389108523 -1 0 0
5418 258 8 0.418 5.363157263192428 5.862560090786695 15.53939020563291 0 0 0
13534 756 31 -1.8561 10.826238108090767 15.43155141369778 11.126064725321887 0 1 -1
14215 870 28 -2.4449 11.813873545831864 6.59586884510897 4.382876521852254 1 2 0
14170 862 31 -1.8561 9.906771661137395 4.7471834678662335 10.19297226125753 0 1 0
9736 862 13 1.4661 9.915323081805255 4.738515139086271 10.15232260610878 0 1 0
248 12 3 0.13 4.215986128663574 5.585381333191023 13.467310611145095 1 1 0
9273 823 18 0.12 6.433113422250788 12.385537729517324 14.550581542036998 -1 2 0
247 12 5 2.5824 5.078305576293694 4.403456672820822 11.960847694709315 1 1 0
12666 611 33 -2.1019 6.275875475666294 15.378915617181724 10.878871173233252 -1 0 0
9734 862 11 2.1281 11.283575502069153 4.897094043687914 8.222156540941256 0 1 0
6683 607 20 0.26 19.0804280676774 11.340476429312009 14.456719393820281 -1 3 0
9729 861 18 0.12 19.647919111673158 14.742510427089709 4.556617301742766 -1 0 0
9840 870 21 0.24 13.307187002995516 4.238689989764559 4.521523524378129 1 2 0
14135 856 32 -2.1019 12.592594072951758 10.276908233299787 15.002121867926554 0 -1 1
9665 856 14 1.7919 12.558414534724447 10.304043625499718 14.968451628090486 0 -1 1
8179 732 16 0.13 14.028148662774388 8.791861435962215 8.560411705326695 2 1 0
9669 856 18 0.12 16.204916622043292 9.130046382466428 15.57648153790805 0 -1 1
14256 876 33 -2.1019 15.694974932942078 4.297360738018529 6.788119078798206 0 1 1
8180 732 17 0.08 14.308629926600283 8.793020255868676 6.816600382926409 2 1 0
13388 732 29 -2.0081 12.427275833474036 9.760205641955748 7.426119922219538 2 1 0
8174 732 11 2.1281 12.442337621417805 9.74728693257159 7.430174331800611 2 1 0
14254 876 31 -1.8561 18.10415086101997 5.901619980587681 6.9524157978123124 0 1 1
7807 701 16 0.13 19.050539892934673 10.326990346088067 6.767509855300323 0 -1 0
12814 636 31 -1.8561 16.958342708236845 14.940215784531139 4.175477075742245 0 -2 0
13387 732 28 -2.4449 13.539051257147412 8.679885119617284 7.592086166541264 2 1 0
8173 732 10 2.1449 13.549472490443911 8.669044749929252 7.588873694739215 2 1 0
8467 756 16 0.13 12.149594772088946 12.017579701902687 11.29349177619548 0 1 -1
8182 732 19 0.12 12.904204431511719 10.694005255874014 7.710361268120627 2 1 0
8177 732 14 1.7919 12.783715448164136 10.386270462415121 5.121699790595907 2 1 0
13391 732 32 -2.1019 12.770296946631849 10.373337667689565 5.142934235714795 2 1 0
8183 732 20 0.26 12.50065312145616 10.302669553727757 4.223977611711864 2 1 0
7808 701 17 0.08 17.372244536249212 9.700039844883248 6.594802030203091 0 -1 0
8181 732 18 0.12 13.261011431491575 7.620285400782569 7.518269243403253 2 1 0
9667 856 16 0.13 15.011316395232623 9.332119610559229 14.238480253527193 0 -1 1
13029 672 30 -1.7492 16.623209111917724 6.486711637594752 10.175703473277197 0 0 1
7464 672 21 0.24 17.481527161669113 6.391173805360667 12.499764016949149 0 0 1
13028 672 29 -2.0081 17.06500257889645 7.607567929777475 11.031299444758751 0 0 1
7454 672 11 2.1281 17.064091058847218 7.622375502407424 11.039718103364214 0 0 1
13031 672 32 -2.1019 16.552234207787244 7.0326690464930115 8.905603625580198 0 0 1
7458 672 15 1.6619 17.16108821576256 7.2758835238914115 12.412425206219481 0 0 1
7462 672 19 0.12 16.31984601048474 8.41718156695028 10.989935674701206 0 0 1
13535 756 32 -2.1019 12.038545254474652 14.861788390278978 12.871919535749434 0 1 -1
8465 756 14 1.7919 12.056218808041436 14.87697301664086 12.890806462016775 0 1 -1
9768 864 21 0.24 14.8263428470188 14.500579468148256 9.363093044434924 0 1 1
7456 672 13 1.4661 16.996806814168817 5.364056841300244 10.387452242092417 0 0 1
7457 672 14 1.7919 16.547646105068747 7.030443336865179 8.862624617386947 0 0 1
8434 753 19 0.12 14.69027499385433 12.338006930794513 11.312036113814559 0 1 1
14184 864 33 -2.1019 14.234097500123282 14.816702730442845 8.702469958191669 0 1 1
9762 864 15 1.6619 14.249697243864226 14.81413502109178 8.68324986027226 0 1 1
7810 701 19 0.12 18.8798678340518 8.21590677628886 5.328459120901278 0 -1 0
9680 857 17 0.08 18.43186421928742 14.64387156923069 15.252922512422257 0 -1 1
8427 753 12 2.1192 16.33118316225766 11.55911079913678 10.19725136687592 0 1 1
8429 753 14 1.7919 16.560093276851166 12.837047134690655 9.817179245743366 0 1 1
13514 753 29 -2.0081 15.485091477809474 11.619054137325731 11.488988368958585 0 1 1
8426 753 11 2.1281 15.493955674371419 11.624788169370158 11.495096440333034 0 1 1
13518 753 33 -2.1019 15.061622075620466 10.276771225788663 11.707563096437758 0 1 1
13517 753 32 -2.1019 16.543328577949 12.79908028377317 9.844859020419815 0 1 1
13515 753 30 -1.7492 16.32114251134251 11.517245051779875 10.213946842828184 0 1 1
8433 753 18 0.12 17.356183095835878 11.541210482086303 12.65281424183336 0 1 1
8431 753 16 0.13 15.810406789988651 12.019730580977495 13.64191955584932 0 1 1
13513 753 28 -2.4449 16.384795157888068 12.027398326601638 12.7242287591404 0 1 1
8425 753 10 2.1449 16.387416905421976 12.036616579756025 12.717327270169053 0 1 1
8432 753 17 0.08 16.569626834246275 13.10305470324693 12.58462981359826 0 1 1
7463 672 20 0.26 16.601746783612498 6.336476519892706 8.223483296961215 0 0 1
7455 672 12 2.1192 16.60872778327136 6.5121488256957125 10.14399608860284 0 0 1
13032 672 33 -2.1019 17.179911692729235 7.289579266367046 12.421806954161807 0 0 1
13030 672 31 -1.8561 17.015687236093132 5.341689942675605 10.386552694525607 0 0 1
13027 672 28 -2.4449 18.350791001291697 8.22794637858957 10.587118070093881 0 0 1
8430 753 15 1.6619 15.06378847136672 10.291376773864046 11.677832919236886 0 1 1
7453 672 10 2.1449 18.334548686048073 8.225369351504513 10.565859990524858 0 0 1
9903 876 12 2.1192 18.15492305083708 4.672727228182757 7.2058752285781935 0 1 1
8436 753 21 0.24 15.130276572647546 10.000233524456595 10.781265120361057 0 1 1
14131 856 28 -2.4449 15.200421029744252 8.92634947772706 15.255888992034489 0 -1 1
8435 753 20 0.26 16.825074964564052 12.944048003408277 8.916426281511939 0 1 1
9077 807 14 1.7919 19.232942138981155 14.565304504216783 12.753302290980097 -1 0 0
9668 856 17 0.08 15.140202479481083 7.834743528114398 15.175691448910612 0 -1 1
13201 701 28 -2.4449 18.2506830461092 10.089289088544867 6.067897372858424 0 -1 0
7459 672 16 0.13 18.7247951165676 8.970941480198562 11.258631007416405 0 0 1
7801 701 10 2.1449 18.241967083766276 10.099208965008824 6.072940199321165 0 -1 0
9912 876 21 0.24 15.943911265710621 4.915024757364158 6.096357412588561 0 1 1
9083 807 20 0.26 18.689713849968125 13.969341509852661 13.24600018026833 -1 0 0
13516 753 31 -1.8561 16.164575712359785 10.61568548423708 9.376448130944018 0 1 1
8428 753 13 1.4661 16.168376691843413 10.624484243610222 9.384841499339952 0 1 1
7460 672 17 0.08 18.292450301035366 8.624758357577125 9.55254384454859 0 0 1
7809 701 18 0.12 17.88149067795266 11.03833460998516 5.653183200281993 0 -1 0
9661 856 10 2.1449 15.191871992148025 8.922050654440854 15.232128200085219 0 -1 1
9906 876 15 1.6619 15.71884927755534 4.308979162045992 6.7856163596186985 0 1 1
9904 876 13 1.4661 18.10327020159003 5.886599917591586 6.949740679023528 0 1 1
7461 672 18 0.12 19.061886343041284 7.419520008233531 10.467463755297894 0 0 1
13841 807 32 -2.1019 19.253056898188966 14.558002277292982 12.72579521947293 -1 0 0
14253 876 30 -1.7492 18.13314517551222 4.6935031625528225 7.1930008481195005 0 1 1
9760 864 13 1.4661 16.476561668926763 14.381159961361988 7.365046095863 0 1 1
9759 864 12 2.1192 15.773551152371024 15.344099583883008 6.941608419976118 0 1 1
14182 864 31 -1.8561 16.50603247207343 14.36292948293069 7.38918313557196 0 1 1
14181 864 30 -1.7492 15.780271485197465 15.313392823560132 6.978093403801405 0 1 1
7802 701 11 2.1281 18.75362944404733 9.208668587526635 4.896507684231962 0 -1 0
6607 601 16 0.13 18.861320250626072 8.614161561257372 15.27630629287782 -1 -2 1
9836 870 17 0.08 12.300351609323013 6.804265807666249 5.334438520749127 1 2 0
14310 885 33 -2.1019 12.894141594977304 5.45286581680743 14.876871491260761 0 3 0
14165 861 32 -2.1019 19.130076708156874 14.817492345505034 6.963930469466027 -1 0 0
9075 807 12 2.1192 19.582757959883477 14.16036480633132 11.49220546299366 -1 0 0
9076 807 13 1.4661 19.323601934142772 13.045729511350086 11.05421138113189 -1 0 0
8471 756 20 0.26 12.149274098375976 15.815316239827656 12.828542065580756 0 1 -1
13840 807 31 -1.8561 19.316925188959004 13.02081509385773 11.057091257134445 -1 0 0
13839 807 30 -1.7492 19.58017110278105 14.146874238396334 11.456277505593762 -1 0 0
9725 861 14 1.7919 19.085843135035343 14.831325171791018 6.984035456442312 -1 0 0
10014 885 15 1.6619 12.912287225462382 5.47443567777165 14.900946320921769 0 3 0
13202 701 29 -2.0081 18.770055475239374 9.206611768981654 4.878264332832513 0 -1 0
6677 607 14 1.7919 19.656742843654573 11.169768475871923 13.72751253207284 -1 3 0
12641 607 32 -2.1019 19.681812032105377 11.16772533593038 13.715340380520516 -1 3 0
10020 885 21 0.24 13.327585328999724 6.308715656218955 14.74432929521599 0 3 0
9731 861 20 0.26 18.424890534784254 14.367693238231446 7.475163939626044 -1 0 0
6792 616 21 0.24 18.91819623893969 4.272426702568275 10.844775897097978 0 -2 0
9739 862 16 0.13 13.341544004259834 4.181034815722043 7.643028549875855 0 1 0
7025 636 14 1.7919 14.921172619947725 13.903028117341384 4.203239256283275 0 -2 0
12815 636 32 -2.1019 14.958711270236876 13.93395298551825 4.207678842944318 0 -2 0
13552 759 31 -1.8561 26.825974707679315 5.169258858390409 7.593485367036815 0 1 0
8266 739 19 0.12 24.396298245046346 8.374397896870667 4.510260408474928 0 -1 1
8305 743 10 2.1449 27.07507333800539 10.004119079354297 8.63528401244294 1 0 0
9911 876 20 0.26 19.764589224513752 4.83534279295189 8.141971896384486 0 1 1
8313 743 18 0.12 26.463895161736815 10.464477853932722 9.411575680952444 1 0 0
8311 743 16 0.13 26.376808369399285 9.435561725037687 8.021070775421304 1 0 0
6843 621 12 2.1192 25.53729571298701 15.565650980047053 10.264995505003018 1 6 1
8265 739 18 0.12 25.761140954577588 7.5002788445203805 6.358062233343925 0 -1 1
8507 759 20 0.26 24.506950139033087 6.300889855114367 7.432222299851184 0 1 0
8033 720 14 1.7919 27.32302838829448 7.785722653477749 14.32643603568981 1 0 1
13319 720 32 -2.1019 27.30257113660976 7.771685968627886 14.328439171208169 1 0 1
9823 869 16 0.13 26.645935332478423 13.869285770793123 12.914887005603076 1 2 1
9721 861 10 2.1449 20.713302943248845 14.515260319345538 4.594132906182317 -1 0 0
8389 750 10 2.1449 21.92272584561835 8.638805362917168 8.270588886666877 0 -1 1
9828 869 21 0.24 27.16182300993983 12.281477431429927 15.45663587100366 1 2 1
8040 720 21 0.24 23.67152393398906 6.817988673262523 15.001264513944658 1 0 1
6675 607 12 2.1192 20.793787050426086 11.842058419562756 13.825051469122972 -1 3 0
9817 869 10 2.1449 25.69680375559968 13.628418174183405 13.393666750131771 1 2 1
8263 739 16 0.13 26.49788421422327 7.740131269776983 4.659530944012566 0 -1 1
8499 759 12 2.1192 25.73126283191564 4.728147778590401 7.934276530791399 0 1 0
13429 739 28 -2.4449 25.83520782378941 7.172354740016756 5.339080973198507 0 -1 1
9827 869 20 0.26 26.663236321747465 9.771060453727966 12.340692788803166 1 2 1
13453 743 28 -2.4449 27.08092729723812 9.994298709025983 8.627274650764733 1 0 0
14161 861 28 -2.4449 20.735298030188527 14.485708348161273 4.578591023169275 -1 0 0
9727 861 16 0.13 21.006201474478235 13.499623273141182 4.328080103697018 -1 0 0
14209 869 28 -2.4449 25.697629759770727 13.6172680699398 13.408662519652276 1 2 1
9819 869 12 2.1192 26.710446132996207 11.13862279199239 13.66572857222436 1 2 1
14164 861 31 -1.8561 20.204467316870783 12.873399881208606 6.817101169035526 -1 0 0
9818 869 11 2.1281 25.748850361054835 12.292428134563373 14.185313387014682 1 2 1
14210 869 29 -2.0081 25.752825354603814 12.273899904174897 14.190526594301621 1 2 1
6678 607 15 1.6619 22.630855110954727 12.181028810098756 12.394448271869178 -1 3 0
13551 759 30 -1.7492 25.760907379519228 4.712645705687877 7.946901955686457 0 1 0
9824 869 17 0.08 25.559914780063878 14.4470918120928 14.100161761152544 1 2 1
13206 701 33 -2.1019 19.998000771188384 9.52186728414384 4.451087740300987 0 -1 0
8500 759 13 1.4661 26.818357633974063 5.167506389860025 7.604425096284283 0 1 0
9724 861 13 1.4661 20.204674454461824 12.89587265069893 6.805984685562075 -1 0 0
14163 861 30 -1.7492 20.259426479280428 14.125158236996995 6.848890936210617 -1 0 0
8034 720 15 1.6619 24.219815867595194 6.062242390526762 14.855503982196817 1 0 1
8262 739 15 1.6619 23.734301697407844 6.682140584457583 5.502046422661028 0 -1 1
6682 607 19 0.12 21.119574655292954 11.011290660315117 11.948090668644733 -1 3 0
7806 701 15 1.6619 19.97129959601324 9.514160222191757 4.434664527301717 0 -1 0
13317 720 30 -1.7492 26.08289626506395 7.562933671559957 14.822089546575414 1 0 1
8310 743 15 1.6619 27.215430048984114 7.858634382804069 9.70072276488596 1 0 0
14211 869 30 -1.7492 26.73943536835508 11.148141658554275 13.706814879895365 1 2 1
6676 607 13 1.4661 21.26908667418856 12.147179762763308 14.887242836701246 -1 3 0
1712 82 3 0.13 26.555447940885273 14.806171577394338 4.609831954969915 0 0 1
13842 807 33 -2.1019 20.962068992444586 14.929262478629601 9.676245886070951 -1 0 0
9082 807 19 0.12 21.598162918823416 14.592307269920546 11.602040230420613 -1 0 0
8852 788 17 0.08 21.69753597289361 4.250492820220457 6.56360700639324 -1 2 0
13838 807 29 -2.0081 20.732004550268485 15.00354871941181 11.080622923268553 -1 0 0
9732 861 21 0.24 22.318401022270052 13.386357782719084 6.693131802605604 -1 0 0
13434 739 33 -2.1019 23.74447448058959 6.695496448677933 5.535020479391739 0 -1 1
8851 788 16 0.13 21.497368919521858 4.6491151274172715 4.829293275144857 -1 2 0
8264 739 17 0.08 26.19331046198662 6.136749436233592 5.377524176062807 0 -1 1
12640 607 31 -1.8561 21.270825000745408 12.136975338623389 14.890176952158733 -1 3 0
13320 720 33 -2.1019 24.194032870327433 6.05063180706963 14.843072486034698 1 0 1
13499 750 32 -2.1019 20.27034758616149 10.846135722555976 9.344890886438417 0 -1 1
9078 807 15 1.6619 20.96155444962674 14.90984229436416 9.691408101223477 -1 0 0
14166 861 33 -2.1019 22.4737111914985 14.105840182490612 6.057664452703021 -1 0 0
1711 82 3 0.13 24.25789733621303 14.018872551153578 4.48735359638959 0 0 1
8399 750 20 0.26 19.88651302838565 11.415345820918358 10.03102591288703 0 -1 1
6783 616 12 2.1192 21.29878435202462 5.376584861066293 10.570599304897371 0 -2 0
13430 739 29 -2.0081 24.58762289859715 7.295129759647014 4.562315503718107 0 -1 1
8501 759 14 1.7919 24.534001545690266 5.456012516303755 7.854683157650737 0 1 0
9825 869 18 0.12 24.86720124800781 13.637907099883602 12.686729580855486 1 2 1
14213 869 32 -2.1019 26.105783336623343 10.479990044817894 12.719473732979575 1 2 1
13495 750 28 -2.4449 21.938099755154276 8.624806181562203 8.284034364906795 0 -1 1
14214 869 33 -2.1019 26.29434318659588 12.715057800799405 15.44030914870235 1 2 1
8031 720 12 2.1192 26.111502647407747 7.561596943527239 14.82210142757984 1 0 1
6679 607 16 0.13 22.20221242407168 9.727692280191107 14.380157080764084 -1 3 0
9084 807 21 0.24 21.102372417267855 14.013573722685457 9.42703698602148 -1 0 0
9657 855 18 0.12 21.774122361522018 15.241199599894724 15.655211810479878 1 0 1
13553 759 32 -2.1019 24.550803594884613 5.435168527436097 7.883279224820745 0 1 0
12639 607 30 -1.7492 20.818236033026174 11.847720749588957 13.826232619989241 -1 3 0
12722 621 29 -2.0081 24.274824295178078 15.644324648679957 9.472692413172743 1 6 1
8030 720 11 2.1281 25.435638281442717 6.381328812515557 14.147699853324056 1 0 1
8037 720 18 0.12 24.997892934105835 5.520854566666719 12.20828904849953 1 0 1
8392 750 13 1.4661 22.31137405377979 11.72454125826681 9.326140459056106 0 -1 1
6847 621 16 0.13 25.03734554548619 14.96890256518439 7.486284335569514 1 6 1
9722 861 11 2.1281 21.16706176012021 14.76861518709002 5.937602731573004 -1 0 0
12695 616 32 -2.1019 22.348657125212352 6.152481879559742 10.800028672441453 0 -2 0
14162 861 29 -2.0081 21.174443193396957 14.754463072624889 5.946760340753 -1 0 0
8391 750 12 2.1192 21.416871512829314 11.106882449870785 8.739086563067257 0 -1 1
8032 720 13 1.4661 25.53108162186971 8.376367001107363 15.557454581370514 1 0 1
8400 750 21 0.24 23.502849651785176 10.94629389693555 7.867062566369733 0 -1 1
8036 720 17 0.08 24.253399664082565 6.9597461182680584 12.27197152001698 1 0 1
8394 750 15 1.6619 23.14744270477913 10.347535100190541 7.228157627947274 0 -1 1
13458 743 33 -2.1019 27.189187974280447 7.869964623961105 9.690715270099167 1 0 0
13316 720 29 -2.0081 25.434272949547815 6.389964579273049 14.1506873266052 1 0 1
13500 750 33 -2.1019 23.163700337637678 10.329992224675669 7.215490446379457 0 -1 1
8257 739 10 2.1449 25.84841409340765 7.169313554952672 5.32319740914561 0 -1 1
8258 739 11 2.1281 24.591438112376974 7.303783296796469 4.571930011985864 0 -1 1
12721 621 28 -2.4449 24.502343365631575 15.810482736969071 7.964381249704951 1 6 1
13498 750 31 -1.8561 22.312671227105465 11.732279338665363 9.326796049416892 0 -1 1
6673 607 10 2.1449 22.351442312458094 9.927748574803324 13.31911706404827 -1 3 0
6845 621 14 1.7919 26.07390109811624 14.348965862016795 10.065567532714072 1 6 1
8035 720 16 0.13 25.998547393672407 7.0389216252690385 12.065343169529964 1 0 1
13318 720 31 -1.8561 25.52761434820376 8.391206173568458 15.555890484171842 1 0 1
9821 869 14 1.7919 26.108541882084975 10.454077965523826 12.685398040086286 1 2 1