LAMMPS data file via write_data, version 29 Oct 2020, timestep = 30000000

13200 atoms
33 atom types
12400 bonds
28 bond types
14200 angles
25 angle types
17600 dihedrals
28 dihedral types

4.491411100456588 50.50858889950376 xlo xhi
4.491411100456588 50.50858889950376 ylo yhi
4.491411100456588 50.50858889950376 zlo zhi

Masses

1 13.607
2 11.611
3 1.008
4 11.611
5 11.611
6 1.008
7 15.599
8 1.008
9 35.05300000000003
10 11.611
11 11.611
12 11.611
13 15.599
14 15.599
15 15.599
16 1.008
17 1.008
18 1.008
19 1.008
20 1.008
21 1.008
22 0.4000000000000006
23 0.4
24 0.4
25 0.4
26 0.4
27 0.3999999999999965
28 0.4
29 0.4
30 0.4
31 0.4
32 0.4
33 0.4

Bond Coeffs # harmonic

1 382.003 1.448
2 339.986 1.09
3 267.925 1.529
4 320.005 1.41
5 553 0.945
6 267.997 1.529
7 340.01 1.09
8 340.01 1.09
9 340.01 1.09
10 316.993 1.522
11 320.005 1.41
12 340.01 1.09
13 570.005 1.229
14 450 1.364
15 553.011 0.945
16 553.011 0.945
17 500 0
18 500 0
19 500 0
20 500 0
21 500 0
22 500 0
23 500 0
24 500 0
25 500 0
26 500 0
27 500 0
28 500 0

Angle Coeffs # harmonic

1 51.8045 107.2
2 35.0024 109.5
3 32.9947 107.8
4 56.2022 109.5
5 37.5 110.7
6 50 109.5
7 35.0024 109.5
8 54.9952 108.5
9 37.5 110.7
10 37.5 110.7
11 37.5 110.7
12 33.0067 107.8
13 33.0067 107.8
14 33.0067 107.8
15 63.0019 111.1
16 50 109.5
17 37.5 110.7
18 51.6491 110.5
19 34.9904 109.5
20 34.9904 109.5
21 79.9952 120.4
22 70.0048 108
23 79.9952 121
24 34.9904 113
25 54.9952 108.5

Dihedral Coeffs # opls

1 0 0 0.55999 0
2 0.415989 -0.128011 0.695005 0
3 -1.013 -0.709011 0.472992 0
4 -10.5286 -1.29897 0 0
5 0 0 0.3 0
6 0 0 0.467997 0
7 -0.355999 -0.173996 0.491993 0
8 0 0 0.45 0
9 0 0 -0.1 0
10 0 0 0.467997 0
11 0 0 0.3 0
12 0 0 -0.1 0
13 0 0 0.467997 0
14 0 0 0.3 0
15 0 0 -0.1 0
16 0 0 0.467997 0
17 0 0 0.3 0
18 0 0 0 0
19 1 0.546009 0.45 0
20 0 0 0 0
21 9.50801 0 0 0
22 0 0 0 0
23 0 0 0 0
24 -0.355999 -0.173996 0.491993 0
25 -0.355999 -0.173996 0.491993 0
26 0 0 0.352008 0
27 1.5 5.5 0 0
28 0 5.5 0 0

Atoms # full

12181 631 28 -2.4449 9.088745483385196 14.769439160582902 10.1762957595554 0 3 1
7161 631 10 2.1449 9.0845343659854 14.754825461199106 10.17404012747288 0 3 1
11949 592 30 -1.7492 8.908635621970621 9.458385599580133 5.392681035547945 0 1 0
12186 631 33 -2.1019 8.937660714136275 13.725019731896857 12.268412521964022 0 3 1
7166 631 15 1.6619 8.920768853177654 13.696876667712155 12.259005577161888 0 3 1
12183 631 30 -1.7492 7.628692157410995 12.793872896001778 10.579483553344783 0 3 1
7162 631 11 2.1281 8.151059559408104 14.092034753102896 11.166014725320542 0 3 1
8575 748 20 0.26 6.7701008228177155 5.394108590239169 15.4673547592699 0 2 1
12182 631 29 -2.0081 8.153723804810687 14.078286478551593 11.157648465772748 0 3 1
7163 631 12 2.1192 7.586193479678934 12.81239257304757 10.560369152581714 0 3 1
7167 631 16 0.13 8.578968956553828 15.04821498338305 9.254035981707197 0 3 1
5899 525 20 0.26 6.707058467270876 7.034614011119919 11.69795796191004 -2 -2 1
7572 665 13 1.4661 9.56160383422652 8.317796326034115 12.609018544213498 -2 0 2
12388 665 31 -1.8561 9.560792219026391 8.311786071183093 12.590444921735028 -2 0 2
10832 406 29 -2.0081 11.469341331088916 5.438630478593111 12.093705885704424 4 0 -2
4546 413 11 2.1281 10.521602433470257 5.47466087914903 7.750792492048477 -1 1 2
6693 592 10 2.1449 8.215949009578505 11.357671080880005 6.9121703110338615 0 1 0
7164 631 13 1.4661 8.303685669545873 11.82693855570797 10.346560445255045 0 3 1
12184 631 31 -1.8561 8.308323755908132 11.799980322789322 10.33431402286074 0 3 1
11947 592 28 -2.4449 8.212159305660618 11.355900179425833 6.908641442763298 0 1 0
12185 631 32 -2.1019 6.573134738083483 13.13874231382838 9.824565721210321 0 3 1
7165 631 14 1.7919 6.529210586141397 13.170326901649263 9.813090737212985 0 3 1
6695 592 12 2.1192 8.930050740993664 9.475729247973062 5.3620552292178205 0 1 0
7535 662 12 2.1192 10.917922138240405 10.021235834020786 9.356814511370105 2 0 -1
12369 662 30 -1.7492 10.939723033691429 10.043940674508065 9.368226912068977 2 0 -1
7543 662 20 0.26 9.226763136678102 9.611689398458864 9.918201118898898 2 0 -1
7537 662 14 1.7919 9.898244081929136 9.17547284340132 9.416356953177148 2 0 -1
12371 662 32 -2.1019 9.929867702730176 9.170299784085056 9.412964376670805 2 0 -1
8250 721 19 0.12 5.030485260240997 14.52004884617936 15.83603225875928 1 2 -2
4745 429 18 0.12 4.835705547089107 7.631213382555924 15.474361866694199 -2 3 -1
11950 592 31 -1.8561 9.264954389066014 8.44203097472698 5.988956287032497 0 1 0
6700 592 17 0.08 9.255990871619222 11.661409223234315 6.793193382137242 0 1 0
6697 592 14 1.7919 9.818701339250541 10.220089425655653 4.635942290813386 0 1 0
11948 592 29 -2.0081 7.836327629287282 10.362930824330201 5.766177213087288 0 1 0
7172 631 21 0.24 8.520460713662452 12.92840367127277 12.636120457985566 0 3 1
7569 665 10 2.1449 7.8330915683323745 10.678803948217512 14.178814181176703 -2 0 2
11951 592 32 -2.1019 9.776609598594117 10.215618187954444 4.645339333561029 0 1 0
7570 665 11 2.1281 9.348055078402913 10.037644589109732 14.29884558463483 -2 0 2
3364 161 2 2.2749 10.730170401529152 13.51698875812233 14.827826543432455 1 1 0
10324 161 23 -2.4449 10.7463414445014 13.531435669969593 14.847319401166148 1 1 0
3371 161 3 0.13 10.195127577230767 12.91889103496231 14.090205966778841 1 1 0
12370 662 31 -1.8561 11.085507357867211 10.792966945456888 10.298091894656086 2 0 -1
7536 662 13 1.4661 11.067215784032857 10.792427807759074 10.284850783349865 2 0 -1
5898 525 19 0.12 6.53717390249877 8.446117494092807 8.582732736488312 -2 -2 1
7170 631 19 0.12 7.420335572164479 14.83990227275342 11.473958241731493 0 3 1
6703 592 20 0.26 10.643221679775177 9.759003594791384 4.611743422766079 0 1 0
4462 406 11 2.1281 11.47673619194507 5.443131774241367 12.085952644796745 4 0 -2
11549 525 32 -2.1019 6.549644893047517 7.712543443361229 10.991586775283205 -2 -2 1
5893 525 14 1.7919 6.572255499071239 7.6888080072866005 11.029469440861426 -2 -2 1
7171 631 20 0.26 6.30508005851304 14.088287921895866 9.824694985970318 0 3 1
10770 370 27 -3.6401 6.159637716346766 5.609849399862918 13.300921409922987 2 -1 1
6701 592 18 0.12 8.128846302694496 10.931887935467767 7.911778079243999 0 1 0
4370 370 9 2.6401 6.153202408015406 5.605256061790283 13.26821716077753 2 -1 1
8248 721 17 0.08 5.394953289414091 12.888286045426412 13.166148612991151 1 2 -2
3361 161 1 2.0273 11.953833769025584 14.287168315361505 14.435067536109779 1 1 0
10321 161 22 -1.9073 11.957813236242691 14.271636621081646 14.429852229672202 1 1 0
4471 406 20 0.26 8.288486891265903 4.6664624812770406 12.693756356282112 4 0 -2
7168 631 17 0.08 9.890316611710311 14.095490874702778 9.851423388159361 0 3 1
10835 406 32 -2.1019 9.145273202708019 4.766039163834553 12.230943109269102 4 0 -2
4465 406 14 1.7919 9.104536896289213 4.756582535664697 12.225829213693116 4 0 -2
7541 662 18 0.12 11.763505152729923 7.508537665495474 10.290937035499342 2 0 -1
4746 429 19 0.12 5.173604359188081 8.286370031624216 12.992545694235544 -2 3 -1
5891 525 12 2.1192 5.611855462587948 7.32993925129659 10.082166252281212 -2 -2 1
5889 525 10 2.1449 5.125457491832825 9.766688699916624 9.569530649802461 -2 -2 1
12390 665 33 -2.1019 10.212435914056075 10.812687476418764 13.355620485120493 -2 0 2
7574 665 15 1.6619 10.196618892126367 10.768974585245687 13.342785293608639 -2 0 2
11545 525 28 -2.4449 5.110311044951689 9.752798710609945 9.558318503734556 -2 -2 1
4549 413 14 1.7919 8.75168278347925 5.432143268367512 9.294563695169794 -1 1 2
6694 592 11 2.1281 7.835018978057971 10.369778397052896 5.776458247058513 0 1 0
4553 413 18 0.12 8.681495891285953 6.007223140282481 6.647867354747929 -1 1 2
4554 413 19 0.12 10.6270370367983 6.494989417337958 8.119458636608034 -1 1 2
11546 525 29 -2.0081 5.521979639371563 8.395744458653656 8.977104507231829 -2 -2 1
5890 525 11 2.1281 5.525446277633537 8.411022125249422 8.986800228851457 -2 -2 1
11547 525 30 -1.7492 5.5877044297067835 7.3242641249323235 10.060883793447992 -2 -2 1
6829 603 14 1.7919 10.005597944958595 14.956928727650283 7.320264518943373 1 2 2
7580 665 21 0.24 10.01393706785595 10.451491918251865 12.47167000285347 -2 0 2
10873 413 28 -2.4449 9.659289802131655 5.481690350789285 6.487120983104506 -1 1 2
10874 413 29 -2.0081 10.540330094366055 5.466249909525222 7.768273492914566 -1 1 2
7575 665 16 0.13 7.323662307953363 10.507243351668123 13.230591397141769 -2 0 2
3373 161 3 0.13 10.98729949536305 12.809792364482682 15.616401618352834 1 1 0
8249 721 18 0.12 5.8549808010642765 14.58994132727338 13.458328034143547 1 2 -2
4545 413 10 2.1449 9.63234287378588 5.499037190696673 6.487477134038741 -1 1 2
4463 406 12 2.1192 10.196054401171807 5.212541312314287 12.953327763848074 4 0 -2
5896 525 17 0.08 5.124378143340708 10.573263595904557 8.836368679507203 -2 -2 1
4552 413 17 0.08 10.214343635340969 6.057559700014028 5.754387138703691 -1 1 2
7571 665 12 2.1192 9.255234279887416 8.572847223835819 13.790001629133432 -2 0 2
12386 665 29 -2.0081 9.354976213852597 10.030571854132129 14.284814882521367 -2 0 2
10878 413 33 -2.1019 11.805968817380837 4.9964876913821925 7.461677406742599 -1 1 2
12017 603 32 -2.1019 10.014784316806454 14.951650369203369 7.311070732844513 1 2 2
6696 592 13 1.4661 9.266156305535524 8.45744638239105 5.976742344594307 0 1 0
12387 665 30 -1.7492 9.269471481930815 8.59171130595057 13.762376943216669 -2 0 2
12385 665 28 -2.4449 7.854526517533992 10.699878281456037 14.166448697578208 -2 0 2
8241 721 10 2.1449 5.177736523654709 13.785612548358056 13.745547021349811 1 2 -2
10833 406 30 -1.7492 10.232993736273626 5.21382962322581 12.99373732146385 4 0 -2
12015 603 30 -1.7492 10.488959100631904 14.322145048426279 6.199203219618594 1 2 2
7542 662 19 0.12 11.729602671400094 8.616979143523338 7.892538365326605 2 0 -1
12014 603 29 -2.0081 11.856388339066328 13.715343880360603 6.388628005200886 1 2 2
6826 603 11 2.1281 11.872948259869602 13.726068253205298 6.404728346705147 1 2 2
4470 406 19 0.12 11.174511253816117 5.524567285630194 11.041869910800642 4 0 -2
3381 161 8 0.418 11.494551937754304 12.524425047769382 11.025129425426016 1 1 0
6834 603 19 0.12 11.961903155002325 13.029923049521038 7.238731186471641 1 2 2
12721 721 28 -2.4449 5.198220050499675 13.775805230377342 13.75635966124216 1 2 -2
6698 592 15 1.6619 6.85622437131561 9.56608771432921 6.449709621982692 0 1 0
12722 721 29 -2.0081 5.466877903501001 13.680328320864446 15.287836918555946 1 2 -2
10323 161 23 -2.4449 11.525933976217825 15.32882442786875 13.570668999304155 1 1 0
3365 161 3 0.13 10.984474348131613 14.890852632898541 12.685698951936985 1 1 0
5897 525 18 0.12 5.8034074478852276 10.026197185792967 10.382637500715642 -2 -2 1
12389 665 32 -2.1019 8.330201847489976 7.955510516215272 14.45424793870724 -2 0 2
8242 721 11 2.1281 5.455953652523015 13.690424783410357 15.271410178044437 1 2 -2
4550 413 15 1.6619 11.77788681900725 4.987950494076128 7.484649292835678 -1 1 2
7576 665 17 0.08 7.771069828599087 11.763259189645787 14.088219980311878 -2 0 2
3363 161 2 2.2749 11.52353579222715 15.320963603085136 13.529792262995063 1 1 0
3372 161 3 0.13 10.083180211977105 14.249148925545937 15.31098262816542 1 1 0
4472 406 21 0.24 11.479530733619411 7.445619656639844 12.576015421039312 4 0 -2
7579 665 20 0.26 7.992788287326309 7.111021725750259 14.091103540949563 -2 0 2
11550 525 33 -2.1019 4.661437723721123 8.116947837347846 7.861484005405636 -2 -2 1
5894 525 15 1.6619 4.684929913030277 8.099515900558282 7.88200324447478 -2 -2 1
7577 665 18 0.12 7.291158971754571 10.293677681271786 15.04257134936086 -2 0 2
6702 592 19 0.12 7.4842549487078625 11.01659110984729 4.97229147028607 0 1 0
7573 665 14 1.7919 8.310986441038269 7.923516238133524 14.453886658783576 -2 0 2
10787 387 27 -3.6401 4.833522178199477 15.97189100833068 10.088978718492868 2 1 0
12016 603 31 -1.8561 10.037346444102862 14.525120961447476 5.055446106990294 1 2 2
7578 665 19 0.12 9.78545452181042 9.967033978443212 15.294735321971546 -2 0 2
8246 721 15 1.6619 6.825061843778514 13.859688559884242 15.5429938366475 1 2 -2
6835 603 20 0.26 9.257362935474998 15.50917171552473 7.1523730707706905 1 2 2
12368 662 29 -2.0081 12.067193312683024 9.130956091564473 8.800184245340605 2 0 -1
7534 662 11 2.1281 12.076424085082676 9.116712412218678 8.797004142362407 2 0 -1
7169 631 18 0.12 9.321631159485367 15.76008085803022 10.522391984823855 0 3 1
10836 406 33 -2.1019 12.101328871567427 6.706040400589327 12.480287239488156 4 0 -2
10327 161 26 -2.1019 11.998657590098999 13.233160000294196 11.478277751724972 1 1 0
3380 161 7 1.4189 11.981918604491849 13.19736872490364 11.475272623315886 1 1 0
10875 413 30 -1.7492 9.900013269443507 4.747042046767091 8.940587046653594 -1 1 2
12726 721 33 -2.1019 6.843062590275818 13.883341346699876 15.523753397959343 1 2 -2
4466 406 15 1.6619 12.076461789853383 6.718074180875095 12.490168291772058 4 0 -2
4555 413 20 0.26 8.251447135125105 5.003711223278997 9.972226164581102 -1 1 2
4464 406 13 1.4661 10.136919196391686 5.495624469299914 14.111670887311428 4 0 -2
10877 413 32 -2.1019 8.780400713357652 5.434096782737262 9.274409893679596 -1 1 2
6699 592 16 0.13 7.528597217545061 12.203168250780354 6.884363870369047 0 1 0
12723 721 30 -1.7492 4.923126537356777 12.350957043218516 15.757016385907077 1 2 -2
4387 387 9 2.6401 4.8152680050001715 15.969948053496463 10.12947060910582 2 1 0
8252 721 21 0.24 7.098581402531705 13.027022006775843 15.896363175580483 1 2 -2
861 41 8 0.418 11.037435487556191 5.035457515560301 15.360006619361302 2 0 0
6827 603 12 2.1192 10.474904265989359 14.325850784089345 6.215024647291318 1 2 2
10834 406 31 -1.8561 10.110695489788593 5.515927630865081 14.114565278910348 4 0 -2
11007 435 30 -1.7492 5.760282076491831 4.613648628436807 4.67731914764467 -1 0 2
4744 429 17 0.08 5.16035398888862 9.355194254522317 15.55604134006652 -2 3 -1
8243 721 12 2.1192 4.889025265966996 12.352927894650362 15.746531447831769 1 2 -2
11952 592 33 -2.1019 6.846062044842042 9.583680855552524 6.4672306793291074 0 1 0
4811 435 12 2.1192 5.791330866396971 4.6020509491449175 4.680456562833564 -1 0 2
6828 603 13 1.4661 10.049515137391134 14.524391183624818 5.057180648720677 1 2 2
4547 413 12 2.1192 9.877885409897424 4.760212301790125 8.948543151952258 -1 1 2
6704 592 21 0.24 7.24129000240743 8.71493785071809 6.592131997547897 0 1 0
5892 525 13 1.4661 5.07292390717442 6.253248765260855 10.058346733969442 -2 -2 1
11548 525 31 -1.8561 5.069800845640059 6.241667686004483 10.052612380918994 -2 -2 1
3367 161 3 0.13 10.77212690673607 15.929069151161777 14.033463991760783 1 1 0
3368 161 3 0.13 12.069179755812831 15.803532911279387 15.959746762177847 1 1 0
8670 756 19 0.12 14.78670560068155 5.269556972994493 15.018393915685834 2 0 -2
8681 757 18 0.12 18.124060944319417 8.509418306315133 4.713733707196198 -1 -1 0
3378 161 6 0.06 12.161071951413707 11.795169113323093 12.950907938770653 1 1 0
10130 133 25 -2.3074 15.501110542024003 13.45226586162613 4.818564158107075 -1 0 0
12028 605 31 -1.8561 16.00870234410595 5.083614891413839 8.504888229215034 -1 -1 -1
8679 757 16 0.13 18.689694245281864 10.046151326827268 4.909218015823537 -1 -1 0
1877 90 3 0.13 17.774518021015915 13.951340134801713 15.798040268838198 0 0 0
6833 603 18 0.12 13.048889121276686 15.377208449296756 5.850654434607794 1 2 2
6825 603 10 2.1449 12.845304637457128 14.835551281262306 6.774369568308736 1 2 2
8662 756 11 2.1281 15.850896251463324 5.053725650804193 14.923528319457903 2 0 -2
12013 603 28 -2.4449 12.841852259917792 14.80543504475611 6.760184128158416 1 2 2
6831 603 16 0.13 13.748108357175308 14.417843138565301 7.219973143922976 1 2 2
11298 483 33 -2.1019 12.297452449336777 9.092565697579229 5.302514980358991 0 0 -6
5390 483 15 1.6619 12.329687359094867 9.096001382086799 5.315002171280931 0 0 -6
3366 161 3 0.13 12.314878504540141 15.968825472459972 13.152764498222574 1 1 0
10326 161 25 -2.3074 12.758056671799217 12.633799645105773 12.561647947678898 1 1 0
3376 161 5 2.5824 12.749146117645443 12.62735177115783 12.563967311349002 1 1 0
6832 603 17 0.08 12.529363085057915 15.646658782133787 7.4304064887726735 1 2 2
2788 133 5 2.5824 15.460787312569138 13.44272311838211 4.8241280493811605 -1 0 0
12367 662 28 -2.4449 12.555086368203158 8.105508789625231 9.803154347972262 2 0 -1
7533 662 10 2.1449 12.548479573652198 8.10387283551256 9.824595647132154 2 0 -1
7539 662 16 0.13 13.033556503380263 8.64123471132747 10.639486337319845 2 0 -1
12932 756 29 -2.0081 15.852496918240961 5.0285891942166945 14.90567683170912 2 0 -2
6854 605 15 1.6619 18.20104691569647 6.929847902942068 8.157130242356574 -1 -1 -1
6860 605 21 0.24 17.812084061026003 7.117775404661806 8.997613670315499 -1 -1 -1
3362 161 2 2.2749 12.643723746352446 14.954953027240663 15.588389241466873 1 1 0
10322 161 23 -2.4449 12.627082076718102 14.959685835552179 15.579845554724606 1 1 0
7540 662 17 0.08 13.309650346437111 7.42336312297105 9.443002399917722 2 0 -1
6830 603 15 1.6619 12.344537489596473 13.307641837612211 5.080186417811499 1 2 2
12018 603 33 -2.1019 12.386342110906853 13.304957441666815 5.065395524202604 1 2 2
5396 483 21 0.24 12.89406412300359 9.707070318935159 5.76344450973193 0 0 -6
6484 574 17 0.08 13.689775448256093 9.341605140056775 14.430819425296193 5 2 -1
3369 161 3 0.13 13.55434852238223 15.504617189156006 15.350205943088577 1 1 0
6485 574 18 0.12 15.366015110288748 9.477290137060294 14.903797109275176 5 2 -1
6483 574 16 0.13 14.396083001685083 10.919111465190237 14.919286811619868 5 2 -1
3377 161 3 0.13 13.614496596865623 12.958373714967815 14.558541122593423 1 1 0
3379 161 6 0.06 13.693758638627337 12.220928640056158 12.202554964789961 1 1 0
3374 161 4 2.0672 13.053023428694422 13.502271536636478 13.798923391238388 1 1 0
10325 161 24 -2.2372 13.032777147109586 13.50369502681435 13.779891705400164 1 1 0
12372 662 33 -2.1019 13.213185895561447 9.863733846340061 8.406397070694231 2 0 -1
7538 662 15 1.6619 13.197229155040613 9.869923471730274 8.408648391622146 2 0 -1
1878 90 3 0.13 16.653064234198787 15.318285135662913 15.700253932171998 0 0 0
7544 662 21 0.24 13.51245879507454 10.29557327558543 9.191258644299905 2 0 -1
2792 133 7 1.4189 16.72082497634659 13.769243289805722 5.377583971639188 -1 0 0
6858 605 19 0.12 16.80374355347231 7.759115543581988 6.949609901131839 -1 -1 -1
6859 605 20 0.26 14.002889269488001 5.832931460819754 7.280911615588503 -1 -1 -1
6851 605 12 2.1192 15.911703956118355 6.034857724888912 7.768502136866711 -1 -1 -1
12027 605 30 -1.7492 15.925371135324019 6.020098678632457 7.772643206240575 -1 -1 -1
6853 605 14 1.7919 14.82500840901983 6.176468940160368 6.966086558503791 -1 -1 -1
3375 161 3 0.13 13.808593640282202 14.20650941809911 13.450697454526374 1 1 0
1871 90 2 2.2749 17.672890870884046 14.993236716621366 15.494381419096856 0 0 0
1872 90 2 2.2749 16.958051005445792 14.488625187103066 13.283757494775765 0 0 0
9826 90 23 -2.4449 16.98266971488547 14.481372305770137 13.316263095724638 0 0 0
1876 90 3 0.13 15.95678489248166 14.886184899469338 13.44958632071243 0 0 0
5652 505 13 1.4661 16.53106232540687 12.430039091147735 7.803063919908743 0 0 1
11428 505 31 -1.8561 16.52194028573945 12.453235253929106 7.791663718568036 0 0 1
1874 90 3 0.13 17.059372174563265 13.427439488585179 13.511141397385613 0 0 0
9824 90 22 -1.9073 17.975891948027066 15.217648902187106 14.031541042615377 0 0 0
1870 90 1 2.0273 17.957279727819465 15.2070225523966 14.052179338785011 0 0 0
1875 90 3 0.13 17.117632498178025 14.546361982523058 12.207057058878016 0 0 0
9825 90 23 -2.4449 17.701347632219537 15.018755129752321 15.461267645463945 0 0 0
5656 505 17 0.08 15.092377452615699 12.283650760448804 10.54514344504364 0 0 1
5649 505 10 2.1449 15.853918065293003 11.528168254860093 10.738510096998779 0 0 1
11425 505 28 -2.4449 15.853329260253794 11.560909186172486 10.749869330543962 0 0 1
11427 505 30 -1.7492 16.954816037171554 11.557492706783927 8.554412792609773 0 0 1
5651 505 12 2.1192 16.963124291720888 11.502217336632123 8.546714355807577 0 0 1
11430 505 33 -2.1019 17.55217312987664 12.900049423442976 10.424774277182332 0 0 1
5654 505 15 1.6619 17.54817103696185 12.880251721975569 10.382684477755896 0 0 1
5655 505 16 0.13 15.421316170061345 10.543572661567604 10.5610135264598 0 0 1
5657 505 18 0.12 15.962531727232204 11.586518414541494 11.82151427320279 0 0 1
11429 505 32 -2.1019 16.916922969260707 10.249087120688525 8.136121340380129 0 0 1
5653 505 14 1.7919 16.922226567267312 10.187119073197337 8.154943759980137 0 0 1
5650 505 11 2.1281 17.152646870539964 11.575335474356779 10.051245455761329 0 0 1
11426 505 29 -2.0081 17.159921781097133 11.598967981792827 10.039892708440131 0 0 1
5658 505 19 0.12 17.797813744355306 10.767372763725616 10.396277980846039 0 0 1
5659 505 20 0.26 16.982192878095532 9.586430046313485 8.881989380688344 0 0 1
8663 756 12 2.1192 16.187110560637123 5.2799805713626515 13.4625561725589 2 0 -2
12933 756 30 -1.7492 16.207747899524296 5.24119697884134 13.468222590908614 2 0 -2
8671 756 20 0.26 15.961798184049748 6.66341545935413 12.136368435665165 2 0 -2
10757 357 27 -3.6401 17.382082152985294 8.316078893929362 10.554132489050966 1 0 1
12935 756 32 -2.1019 15.763211922783325 6.487506289906367 13.084708550432754 2 0 -2
4357 357 9 2.6401 17.376321320480617 8.269509240294841 10.541193829198331 1 0 1
8665 756 14 1.7919 15.755704781564177 6.522971646386603 13.047859180191978 2 0 -2
12029 605 32 -2.1019 14.842862617487404 6.179956224433233 6.958439513825162 -1 -1 -1
4723 427 20 0.26 19.19075559571878 8.512062390240953 11.330469490132945 -1 1 -1
5660 505 21 0.24 16.91476499561314 13.313499666476872 9.831226182857293 0 0 1
1873 90 2 2.2749 19.34896126165518 14.709011817767193 13.809857729252343 0 0 0
9827 90 23 -2.4449 19.35759539572239 14.69158129056068 13.827078852762366 0 0 0
1880 90 3 0.13 19.492239005236293 13.6638100606975 14.083919922960838 0 0 0
2793 133 8 0.418 16.73777474264409 13.50811593064526 6.285629455316602 -1 0 0
6850 605 11 2.1281 17.142314585296365 6.769050179582691 7.25495064609162 -1 -1 -1
12026 605 29 -2.0081 17.116829827002174 6.766474606793322 7.2563448115811635 -1 -1 -1
4722 427 19 0.12 17.922855361586315 8.495560866946988 13.203257013757295 -1 1 -1
1882 90 3 0.13 19.718441549874278 14.7849956567994 12.787215810393228 0 0 0
2791 133 6 0.06 14.81231779245175 13.889631960425094 5.577688977803886 -1 0 0
4714 427 11 2.1281 18.80692359673633 8.932735116535076 13.66734592803178 -1 1 -1
10958 427 29 -2.0081 18.82462956010671 8.937327052709666 13.673770960967861 -1 1 -1
4721 427 18 0.12 17.825097370382643 10.981609457512777 13.795482435544898 -1 1 -1
4713 427 10 2.1449 18.696982199819104 10.427019769018793 13.448585509906096 -1 1 -1
10962 427 33 -2.1019 18.568170842286104 8.757836444129683 15.096627576463279 -1 1 -1
4718 427 15 1.6619 18.594699388052874 8.754766549323808 15.098141928934004 -1 1 -1
10957 427 28 -2.4449 18.687527210562315 10.44265124591248 13.460586405576635 -1 1 -1
4720 427 17 0.08 19.65889320269566 10.784832587124907 13.815737054266627 -1 1 -1
4719 427 16 0.13 18.724191293861477 10.639098965416729 12.379770344677896 -1 1 -1
10131 133 26 -2.1019 16.762025845959357 13.800400523948788 5.3569034565489595 -1 0 0
4724 427 21 0.24 19.261299705550087 9.288316773453994 15.503104876182826 -1 1 -1
4612 418 17 0.08 19.659877812465023 11.960230119389838 7.268932416883568 -1 1 0
6856 605 17 0.08 16.89557953080937 5.656133564292343 5.416983287509254 -1 -1 -1
1835 88 3 0.13 19.28470545002793 14.558215798275674 5.464541268585846 0 0 0
12025 605 28 -2.4449 17.718544951173158 5.932977792126922 6.102123226091523 -1 -1 -1
12030 605 33 -2.1019 18.226265715127692 6.915592259219232 8.109758357453057 -1 -1 -1
12931 756 28 -2.4449 16.449428838307398 6.067143999862618 15.86732402019876 2 0 -2
8661 756 10 2.1449 16.4527316388585 6.108014106999873 15.865616761159357 2 0 -2
6849 605 10 2.1449 17.70293453492287 5.909487650789888 6.104054137356586 -1 -1 -1
2175 104 3 0.13 19.279568989324005 5.119655407162326 15.844053228758176 -1 0 1
4469 406 18 0.12 13.261736779275276 4.544098407231495 11.543184748668658 4 0 -2
5388 483 13 1.4661 14.609862516916756 10.25925654308221 4.497443774874414 0 0 -6
6477 574 10 2.1449 14.364382989087504 9.848382713324305 15.120860745435632 5 2 -1
11839 574 28 -2.4449 14.36458822169116 9.831564209944597 15.123136091722973 5 2 -1
8669 756 18 0.12 16.092717802588695 7.126847241226557 15.722567694711541 2 0 -2
6852 605 13 1.4661 16.015757760760376 5.091696158182632 8.499711442738416 -1 -1 -1
6857 605 18 0.12 18.125386079449093 4.942559019264625 6.377315527787877 -1 -1 -1
1833 88 3 0.13 17.563285345519823 15.896505895661402 6.501818370546707 0 0 0
8667 756 16 0.13 17.540860957592738 6.056980503060563 15.827303810499904 2 0 -2
6855 605 16 0.13 18.36397927434856 6.424316611704072 5.406870680764583 -1 -1 -1
4613 418 18 0.12 19.82853889730535 10.926774746518857 8.599443927423525 -1 1 0
2790 133 6 0.06 15.258452099658044 12.373967578433048 4.89414941085447 -1 0 0
8680 757 17 0.08 19.822850080496266 8.60682253758537 4.832133497557488 -1 -1 0
5394 483 19 0.12 13.31991265525019 7.3971711370372475 4.5616588556966455 0 0 -6
9212 2 24 -2.2372 27.290295032315736 14.645370323099183 9.012801669938241 0 1 0
5640 504 13 1.4661 27.252279885131696 11.95420805049991 12.991937084398117 1 -2 2
8173 715 14 1.7919 26.30019394996046 7.94963923059843 8.184713614264753 3 1 1
11422 504 31 -1.8561 27.253166187233877 11.939955791756232 12.97745520342155 1 -2 2
9209 2 23 -2.4449 26.44276967024805 12.806596976693701 7.762016075109959 0 1 0
9213 2 25 -2.3074 27.374814781087004 14.030291527982511 10.482043856971616 0 1 0
35 2 4 2.0672 27.318285400640494 14.663985293549112 8.99577483859037 0 1 0
8791 766 20 0.26 26.79380092488266 10.043497831627374 13.927246339516318 -2 4 0
41 2 7 1.4189 26.23139480751357 14.000596308743962 11.246189635208058 0 1 0
3177 152 3 0.13 21.58775752962047 15.65549116132208 11.506859064032664 1 0 1
5642 504 15 1.6619 26.74837969228836 12.748361809741313 15.75543387372205 1 -2 2
3180 152 3 0.13 23.128797245896546 15.723722640606749 13.233935916533166 1 0 1
8783 766 12 2.1192 27.214709310348795 8.362565374299074 14.900622928321834 -2 4 0
7950 696 19 0.12 22.712712088240064 4.574123275482219 12.949459293025704 3 1 1
1480 71 3 0.13 25.50475376350325 7.686982519975576 5.675909084429099 -1 0 0
8789 766 18 0.12 26.942740475019416 6.512230661967833 13.147931407242709 -2 4 0
12993 766 30 -1.7492 27.21639615966812 8.337417036469283 14.910297976760143 -2 4 0
31 2 3 0.13 26.26658753862024 12.028003475136725 8.571550434925365 0 1 0
34 2 3 0.13 27.358614653055298 14.79885447739701 6.4207538488529625 0 1 0
4717 427 14 1.7919 20.042256044075465 8.39755035342291 11.72397306236915 -1 1 -1
10959 427 30 -1.7492 20.03391099484249 8.27959820619645 13.137423021636382 -1 1 -1
12686 715 29 -2.0081 24.12056683042286 7.831710035088014 9.096151056361755 3 1 1
4715 427 12 2.1192 20.018642020069567 8.283271352894326 13.07749940531756 -1 1 -1
10961 427 32 -2.1019 20.078800617029206 8.407788434235572 11.790177811240161 -1 1 -1
26 2 3 0.13 24.924195685191663 15.176811646046755 9.301935841521006 0 1 0
30 2 3 0.13 25.953952796461742 12.37658490804122 6.870532808369095 0 1 0
23 2 2 2.2749 26.460086561242925 12.736607889842185 7.766238522099078 0 1 0
10904 418 29 -2.0081 21.731746829405104 11.130734491940038 7.558496763663473 -1 1 0
5226 469 19 0.12 22.522899965285387 10.729593887267425 11.856387620235118 -1 1 1
5218 469 11 2.1281 23.489737314183152 10.766720436980297 12.358309731957158 -1 1 1
8177 715 18 0.12 24.105636636636437 6.765583571012707 7.247402024159937 3 1 1
12687 715 30 -1.7492 25.263238548265544 8.706448527264556 8.744516601620145 3 1 1
8175 715 16 0.13 23.092834328511067 8.110612465921577 7.138079246771633 3 1 1
11211 469 30 -1.7492 23.588733155337327 12.106016460022515 13.175868010272062 -1 1 1
8785 766 14 1.7919 27.117553834714624 9.160418817626372 13.835721600053683 -2 4 0
7446 654 19 0.12 20.306991036335262 4.573958347032528 9.105807209082588 -1 -1 -1
12995 766 32 -2.1019 27.121661643176598 9.135429543859427 13.849404493196756 -2 4 0
33 2 3 0.13 25.64387108802489 14.47446910050414 6.103094998725832 0 1 0
7220 635 21 0.24 27.311404523319347 4.559474997147419 7.235413471262431 -2 0 0
1479 71 3 0.13 25.70385464947583 6.317960076637014 4.545887085185953 -1 0 0
25 2 2 2.2749 26.350427877198364 14.88057764554809 6.826924721705512 0 1 0
12173 629 32 -2.1019 23.120947580276624 5.1531930339583045 4.848795860979747 -3 1 -1
7214 635 15 1.6619 27.49959979144106 5.4297203027096685 7.5520604877783155 -2 0 0
37 2 5 2.5824 27.414335393456675 14.05142441964902 10.47190057263071 0 1 0
8174 715 15 1.6619 23.289205847106786 8.754897880352944 9.77099190361815 3 1 1
3179 152 3 0.13 24.2860600245891 15.529014491819074 11.76576097058345 1 0 1
27 2 3 0.13 24.784240160385124 13.431689539868865 9.26684054397381 0 1 0
3178 152 3 0.13 22.608476750957834 15.912676766139903 10.144448051331754 1 0 1
4610 418 15 1.6619 22.162953843132488 12.1672967712254 8.448591133544161 -1 1 0
5648 504 21 0.24 26.09458947629753 12.629656098449688 15.083513777943857 1 -2 2
1881 90 3 0.13 20.07002932368514 15.187691229084477 14.472452012803418 0 0 0
12210 635 33 -2.1019 27.47820857484683 5.442590786182901 7.576846007098624 -2 0 0
5222 469 15 1.6619 24.650991010559913 10.606534168709652 11.514255895968134 -1 1 1
11209 469 28 -2.4449 23.70653947866468 9.621497999846053 13.401235797052864 -1 1 1
10908 418 33 -2.1019 22.15208335261811 12.180584620791347 8.475629569876528 -1 1 0
7141 629 14 1.7919 23.08475264826922 5.173752911048985 4.808905078904529 -3 1 -1
4616 418 21 0.24 21.97906305207522 12.971809327038411 7.988197591421192 -1 1 0
4608 418 13 1.4661 22.559605444347504 12.713545509743673 5.979609483852464 -1 1 0
24 2 2 2.2749 24.939773345785603 14.310327358810893 8.640827733982867 0 1 0
12685 715 28 -2.4449 23.402367600408176 7.353154207516363 7.842673674700436 3 1 1
5223 469 16 0.13 24.628794574748188 9.70963819339747 13.937364839528243 -1 1 1
12688 715 31 -1.8561 25.06572926207422 9.859642721299325 8.318079104733997 3 1 1