LAMMPS data file via write_data, version 29 Oct 2020, timestep = 30000000

14400 atoms
33 atom types
13500 bonds
28 bond types
16200 angles
25 angle types
20400 dihedrals
28 dihedral types

4.235761231568894 50.7642387684788 xlo xhi
4.235761231568894 50.7642387684788 ylo yhi
4.235761231568894 50.7642387684788 zlo zhi

Masses

1 13.607
2 11.611
3 1.008
4 11.611
5 11.611
6 1.008
7 15.599
8 1.008
9 35.05300000000003
10 11.611
11 11.611
12 11.611
13 15.599
14 15.599
15 15.599
16 1.008
17 1.008
18 1.008
19 1.008
20 1.008
21 1.008
22 0.4000000000000006
23 0.4
24 0.4
25 0.4
26 0.4
27 0.3999999999999965
28 0.4
29 0.4
30 0.4
31 0.4
32 0.4
33 0.4

Bond Coeffs # harmonic

1 382.003 1.448
2 339.986 1.09
3 267.925 1.529
4 320.005 1.41
5 553 0.945
6 267.997 1.529
7 340.01 1.09
8 340.01 1.09
9 340.01 1.09
10 316.993 1.522
11 320.005 1.41
12 340.01 1.09
13 570.005 1.229
14 450 1.364
15 553.011 0.945
16 553.011 0.945
17 500 0
18 500 0
19 500 0
20 500 0
21 500 0
22 500 0
23 500 0
24 500 0
25 500 0
26 500 0
27 500 0
28 500 0

Angle Coeffs # harmonic

1 51.8045 107.2
2 35.0024 109.5
3 32.9947 107.8
4 56.2022 109.5
5 37.5 110.7
6 50 109.5
7 35.0024 109.5
8 54.9952 108.5
9 37.5 110.7
10 37.5 110.7
11 37.5 110.7
12 33.0067 107.8
13 33.0067 107.8
14 33.0067 107.8
15 63.0019 111.1
16 50 109.5
17 37.5 110.7
18 51.6491 110.5
19 34.9904 109.5
20 34.9904 109.5
21 79.9952 120.4
22 70.0048 108
23 79.9952 121
24 34.9904 113
25 54.9952 108.5

Dihedral Coeffs # opls

1 0 0 0.55999 0
2 0.415989 -0.128011 0.695005 0
3 -1.013 -0.709011 0.472992 0
4 -10.5286 -1.29897 0 0
5 0 0 0.3 0
6 0 0 0.467997 0
7 -0.355999 -0.173996 0.491993 0
8 0 0 0.45 0
9 0 0 -0.1 0
10 0 0 0.467997 0
11 0 0 0.3 0
12 0 0 -0.1 0
13 0 0 0.467997 0
14 0 0 0.3 0
15 0 0 -0.1 0
16 0 0 0.467997 0
17 0 0 0.3 0
18 0 0 0 0
19 1 0.546009 0.45 0
20 0 0 0 0
21 9.50801 0 0 0
22 0 0 0 0
23 0 0 0 0
24 -0.355999 -0.173996 0.491993 0
25 -0.355999 -0.173996 0.491993 0
26 0 0 0.352008 0
27 1.5 5.5 0 0
28 0 5.5 0 0

Atoms # full

4747 227 1 2.0273 8.04939736507572 9.540751871213816 8.083648233318177 1 1 0
11783 227 22 -1.9073 8.07019409026761 9.561662570514702 8.122668318583209 1 1 0
4760 227 4 2.0672 8.746129920696552 10.474062207667851 7.1241475104347485 1 1 0
11787 227 24 -2.2372 8.738520872155094 10.479237882022346 7.141317741301753 1 1 0
4752 227 3 0.13 6.067712440515678 10.354463631198522 7.606887463056385 1 1 0
11784 227 23 -2.4449 8.896614659676048 9.250934622664229 9.304564993896092 1 1 0
4748 227 2 2.2749 8.874647101990533 9.261651820676448 9.284477578482049 1 1 0
4761 227 3 0.13 9.587393573212864 9.940095375813483 6.68226434830805 1 1 0
4762 227 5 2.5824 9.274025680288084 11.770278950668388 7.772358747022956 1 1 0
11788 227 25 -2.3074 9.228303385701935 11.76225292394111 7.79609771671941 1 1 0
4766 227 7 1.4189 8.232511673216301 12.555566712689403 8.331649059119604 1 1 0
11789 227 26 -2.1019 8.181501669248664 12.558261271445364 8.318930690957197 1 1 0
4754 227 3 0.13 8.44141927540307 8.350050903766107 9.696067728998939 1 1 0
4763 227 3 0.13 8.020145152548192 10.794479307553562 6.376893250998267 1 1 0
4756 227 3 0.13 9.929096082896319 9.002707609153664 9.188625905503985 1 1 0
11901 243 26 -2.1019 5.605021127487123 12.969254267371584 12.934460360682477 1 0 0
4753 227 3 0.13 6.7447665967543875 10.849817726212908 9.107200742120554 1 1 0
4764 227 6 0.06 9.803412836071526 12.295155143875999 6.977149112439825 1 1 0
5418 258 8 0.418 7.099150873013873 11.568921650322114 13.054644301307418 1 0 0
4750 227 2 2.2749 7.811771333758218 8.33411833252298 7.2923991040931755 1 1 0
11786 227 23 -2.4449 7.830425051954625 8.390019315382895 7.330966887119812 1 1 0
4749 227 2 2.2749 6.684844484652867 9.99690322179847 8.431149669107382 1 1 0
11785 227 23 -2.4449 6.696429098329949 9.953344271076856 8.438549883440272 1 1 0
4755 227 3 0.13 8.788374544589589 10.001898352062952 10.07989665374112 1 1 0
4751 227 3 0.13 6.0314710972344585 9.285364166920015 8.9360496465777 1 1 0
5083 243 1 2.0273 5.588554539988134 15.074775502162046 10.73956953987368 1 0 0
11895 243 22 -1.9073 5.567728152645445 15.075815874976996 10.780314095831963 1 0 0
5098 243 5 2.5824 5.739560606049955 14.426005772937128 13.223499730154757 1 0 0
11900 243 25 -2.3074 5.784376167629457 14.365069273087647 13.214384025660793 1 0 0
5413 258 5 2.5824 8.844903497436947 12.010527284744384 12.678190508677584 1 0 0
12005 258 25 -2.3074 8.839798442414939 11.974744113627374 12.723007253122205 1 0 0
5415 258 6 0.06 8.746471422088518 11.989458102157206 11.59284387012279 1 0 0
4758 227 3 0.13 7.001261860460265 8.374506763799378 6.564694163663681 1 1 0
5416 258 6 0.06 8.612816061932113 13.0604861239693 12.856580823517291 1 0 0
5411 258 4 2.0672 10.280367180389302 11.735564353561928 13.028414819028056 1 0 0
12004 258 24 -2.2372 10.28075261866631 11.713075737370465 13.04324291717741 1 0 0
5472 261 3 0.13 6.083088715401453 12.641754086421667 5.440508890710284 1 0 0
6504 504 9 2.6401 10.015407053974803 14.03772614479413 10.552684623337813 0 1 0
12504 504 27 -3.6401 9.98199454239098 14.023911656921431 10.56822425456169 0 1 0
5101 243 6 0.06 6.771498741127415 14.774732185234203 13.26341270243479 1 0 0
4757 227 3 0.13 8.67974503556014 7.988298132025299 6.731029966460331 1 1 0
4759 227 3 0.13 7.630148872226716 7.463727443945528 7.922906820908018 1 1 0
5102 243 7 1.4189 5.570653799937137 13.022757022758338 12.968689871633387 1 0 0
5417 258 7 1.4189 7.901354647396636 11.077422383561068 13.14368203286169 1 0 0
12006 258 26 -2.1019 7.899438949128435 11.02902213643133 13.148359308735792 1 0 0
5473 261 3 0.13 7.327649462818936 13.827575748585325 5.73855963636701 1 0 0
5414 258 3 0.13 10.485739036258295 10.684027683585338 12.827909065657233 1 0 0
3159 151 3 0.13 10.55737613020326 14.910453992581681 6.09799365808391 0 0 1
4767 227 8 0.418 8.549735100492555 13.11334782342659 9.025387973413618 1 1 0
5095 243 3 0.13 5.70164775255675 13.898087609561975 8.986525252532248 1 0 0
498 24 3 0.13 6.57126505310255 8.67832368300073 12.598516153492046 0 1 0
2937 140 6 0.06 10.552363491235676 6.804662614672112 7.660412714488258 0 0 1
4765 227 6 0.06 10.038586555861027 11.52029437563315 8.507922915215978 1 1 0
504 24 8 0.418 5.121788574488263 6.542065079025578 10.008315269194542 0 1 0
503 24 7 1.4189 5.431871139961888 7.223209769938805 10.585311250964775 0 1 0
10366 24 24 -2.2372 5.722073066637108 8.043032278136062 12.837312440282261 0 1 0
497 24 4 2.0672 5.719282868534814 8.05202939860673 12.863057592513048 0 1 0
10368 24 26 -2.1019 5.433010844741514 7.266770427013704 10.57750329637208 0 1 0
10367 24 25 -2.3074 5.665049755336845 6.881683770416411 11.89628802151599 0 1 0
499 24 5 2.5824 5.6877411382215755 6.874628069791176 11.910408933778571 0 1 0
2923 140 2 2.2749 10.480995588137839 5.684409225528519 10.170152845880889 0 0 1
11177 140 23 -2.4449 10.488360677254919 5.674130002571068 10.165851716780304 0 0 1
5412 258 3 0.13 10.824496489539676 12.43201896020013 12.39046730276489 1 0 0
502 24 6 0.06 6.7149995126423505 6.51222602291422 11.87157955005977 0 1 0
3162 151 3 0.13 11.475806062363098 14.605473231940431 8.559078692819844 0 0 1
11174 140 22 -1.9073 11.208272323879953 4.600072193146458 9.49603943949423 0 0 1
2935 140 5 2.5824 11.10848250281715 5.9415541394507425 7.294519531868669 0 0 1
500 24 3 0.13 5.892449463218631 7.531172066474433 13.804770824106797 0 1 0
13581 764 30 -1.7492 10.31606283061123 6.538091478464262 13.888872709497731 -1 0 -1
8559 764 12 2.1192 10.350730414246803 6.576425648582527 13.887674791907429 -1 0 -1
13582 764 31 -1.8561 9.344573910070716 5.995780407906824 13.485700911642205 -1 0 -1
8560 764 13 1.4661 9.369652166416937 6.013746469998842 13.501872367798054 -1 0 -1
11898 243 23 -2.4449 5.302832905814144 13.893150736407959 9.98114124063343 1 0 0
5094 243 3 0.13 5.588413722559999 12.91308686302808 10.466417042410837 1 0 0
5086 243 2 2.2749 5.284993167966675 13.846565111898503 9.992433706814525 1 0 0
12024 261 23 -2.4449 6.87107942380654 13.278452865082075 4.947250726318253 1 0 0
492 24 3 0.13 5.707089682032523 10.260339902669507 14.275894634600773 0 1 0
11179 140 25 -2.3074 11.168082360514159 5.96002634669991 7.3341003418269555 0 0 1
2930 140 3 0.13 10.767564629755576 5.65181616229702 11.221302629325399 0 0 1
5464 261 2 2.2749 6.849068439821693 13.244079693763348 4.952054486110946 1 0 0
3165 151 3 0.13 9.371764063642058 15.234833081442332 8.327334472953964 0 0 1
5096 243 4 2.0672 5.043400972194296 15.17837198467936 12.087582965971123 1 0 0
11899 243 24 -2.2372 5.0701375585094075 15.127789690784885 12.118076872218943 1 0 0
6573 573 9 2.6401 8.024372170168405 5.348361134055302 6.682052655042767 0 1 0
13583 764 32 -2.1019 10.79683970592489 7.639891152014602 13.205249797040452 -1 0 -1
8561 764 14 1.7919 10.844978949737309 7.66677427919097 13.223398924279248 -1 0 -1
2938 140 6 0.06 10.60209877492765 5.801572623642212 6.339484238230463 0 0 1
5404 258 3 0.13 11.07080893385988 13.997758029587597 13.898735579912113 1 0 0
5471 261 3 0.13 7.614406980102033 12.509118408782081 4.702665305585491 1 0 0
2931 140 3 0.13 9.40051208925529 5.654223392762649 10.029602068914226 0 0 1
490 24 3 0.13 5.420064705896209 10.521453252247117 11.601222369671053 0 1 0
12573 573 27 -3.6401 8.050329923382783 5.360354694061111 6.682503284886774 0 1 0
8558 764 11 2.1281 11.381758036810432 5.909909648380326 14.828367550120245 -1 0 -1
13580 764 29 -2.0081 11.34188925015317 5.907247550886918 14.82423661620192 -1 0 -1
5400 258 2 2.2749 10.719480892242384 13.360668287038695 14.710394246992776 1 0 0
5465 261 3 0.13 4.657858051178309 14.63490011772535 4.591926475810799 1 0 0
2932 140 3 0.13 10.89274815706694 6.655686883361972 9.895962425623857 0 0 1
5398 258 1 2.0273 10.659146893839898 11.922702911554172 14.44666542217673 1 0 0
5103 243 8 0.418 4.658409348612742 12.822399881594118 13.112561129826654 1 0 0
10363 24 23 -2.4449 4.744502599571409 9.752385760834628 14.134042812695894 0 1 0
12000 258 22 -1.9073 10.652747982520577 11.945381184727001 14.442331963384543 1 0 0
12002 258 23 -2.4449 10.70279832603309 13.377113458367488 14.701138994273585 1 0 0
5089 243 3 0.13 7.429456209373587 15.233033894803691 9.65018257843107 1 0 0
4461 213 3 0.13 4.343814242514565 6.450023949519808 7.52528554965375 1 1 1
5100 243 6 0.06 5.453154194518424 14.614249453224831 14.258215732051163 1 0 0
5087 243 3 0.13 7.486995736214922 14.317881551979289 11.113503544418073 1 0 0
5085 243 2 2.2749 7.024258541977058 15.195120308615738 10.661362570259467 1 0 0
11897 243 23 -2.4449 6.987822561692685 15.192774322137979 10.652058021178457 1 0 0
12739 624 28 -2.4449 7.706081113957169 8.250554307731948 15.504498664864817 1 0 0
486 24 2 2.2749 4.513262866419648 9.95001174843315 11.799376497113965 0 1 0
6885 624 18 0.12 7.4351767002092615 7.239666113010178 15.169142107324276 1 0 0
485 24 2 2.2749 4.740678187878647 9.770719632392257 14.155812634896758 0 1 0
12810 635 33 -2.1019 7.522060154229877 4.34117163314342 9.597436991682166 0 0 0
12808 635 31 -1.8561 4.760178590349287 5.0885417672532025 9.28180178065873 0 0 0
7063 639 16 0.13 6.574988701390762 4.5073546162814795 14.811853316883754 0 0 0
493 24 3 0.13 4.612780146398613 9.157293730007023 15.04769569497849 0 1 0
8568 764 21 0.24 9.971896266999376 4.779912622494408 15.094529319077251 -1 0 -1
13584 764 33 -2.1019 10.562115519215144 5.228280072176022 15.70746254934927 -1 0 -1
4473 213 8 0.418 4.413735269018255 9.38172211283954 5.1339692147125175 1 1 1
501 24 6 0.06 5.0070093623098 6.091188702128335 12.24348068083994 0 1 0
10364 24 23 -2.4449 4.513408122989347 9.9429927443099 11.840642280714048 0 1 0
6884 624 17 0.08 7.511048286413449 8.955492556622934 14.718197109182364 1 0 0
1611 77 3 0.13 11.13450194681185 11.100445719655168 4.248926608363157 0 0 1
7012 635 13 1.4661 4.782077861077866 5.078630753051217 9.290562802130145 0 0 0
484 24 1 2.0273 4.568112922189147 8.987118193146419 12.930105625794662 0 1 0
8564 764 17 0.08 11.68614728688939 4.378785561315636 13.380779199145433 -1 0 -1
7014 635 15 1.6619 7.491224849374124 4.350052637302894 9.548906037486132 0 0 0
5403 258 3 0.13 9.748318238120756 13.776555759120004 14.978698506621315 1 0 0
5401 258 2 2.2749 9.804459621623462 11.18088286768827 15.351847445750428 1 0 0
6551 551 9 2.6401 11.588975125702408 8.49738407816965 4.804611832196876 0 0 1
12551 551 27 -3.6401 11.581962136631109 8.467737448678639 4.790772563538135 0 0 1
2936 140 3 0.13 9.935596161215344 4.380841042299382 7.924594237841731 0 0 1
5262 251 3 0.13 5.480811240040107 4.92224315874476 5.107346500367929 0 0 0
5467 261 3 0.13 6.088821697056729 15.566281457615478 5.005347875979757 1 0 0
8567 764 20 0.26 11.65280064689997 7.892837428092454 13.658535711273315 -1 0 -1
5402 258 3 0.13 11.34840215677102 13.464089818157257 15.594623121638312 1 0 0
11178 140 24 -2.2372 11.020652536879162 4.645431125835492 8.06740984812234 0 0 1
7020 635 21 0.24 7.447671096395384 4.621146068335997 8.644670219664077 0 0 0
5408 258 3 0.13 8.741681806492252 11.398574672510083 15.457779974845655 1 0 0
2933 140 4 2.0672 10.984442990034005 4.639313794396242 8.07027664839456 0 0 1
10362 24 22 -1.9073 4.577998576899992 8.96731767528468 12.925435742961078 0 1 0
8562 764 15 1.6619 10.553747915115745 5.244702108481177 15.676296717231066 -1 0 -1
5259 251 3 0.13 6.52016176410711 6.879172187701508 4.718661073485939 0 0 0
6877 624 10 2.1449 7.719118579568586 8.235441304438373 15.509613124275115 1 0 0
12003 258 23 -2.4449 9.839196805361304 11.223000929237266 15.348127669600931 1 0 0
5410 258 3 0.13 9.770606041186692 10.119955585943597 15.104061467681456 1 0 0
2920 140 1 2.0273 11.219113495972282 4.595029868759341 9.508245934557225 0 0 1
12505 505 27 -3.6401 6.409052845155077 9.994622089892983 4.602197748508512 1 1 1
6505 505 9 2.6401 6.396872501682991 9.974558974672032 4.609637215038085 1 1 1
5866 280 3 0.13 10.04367304731785 15.525262169378111 13.027905465555309 1 0 0
3152 151 2 2.2749 11.11812223278924 15.83571251591768 6.230554094544986 0 0 1
6883 624 16 0.13 8.808325473881009 8.253103409714647 15.54725562836064 1 0 0
11252 151 23 -2.4449 11.163048936479674 15.854922932234091 6.257769295767705 0 0 1
3154 151 2 2.2749 12.00331313140435 15.533553523008973 8.338820881815677 0 0 1
11254 151 23 -2.4449 11.99108426701367 15.570397542615698 8.32010818365651 0 0 1
5969 285 3 0.13 12.713434361220015 9.530527214896534 11.47858802507463 0 1 0
12195 285 26 -2.1019 12.529115508912927 8.462596852720429 8.8839326090686 0 1 0
2926 140 3 0.13 12.920810248532012 4.435285570046786 10.806289425534514 0 0 1
7109 643 14 1.7919 15.208423202939516 15.60611810799155 5.946027201840674 0 1 1
10104 892 21 0.24 13.98973745048903 8.960859351277865 15.54298515920432 0 0 -1
13579 764 28 -2.4449 12.246727548941617 4.975845903078658 14.062070002577634 -1 0 -1
8565 764 18 0.12 12.756772687645157 4.344147063060925 14.775391916259858 -1 0 -1
8557 764 10 2.1449 12.269467933320096 5.003549168324608 14.057181658954903 -1 0 -1
8303 742 20 0.26 19.466304623823554 6.274317444314472 14.368261226267483 1 1 -2
5984 285 7 1.4189 12.560014349875523 8.461887630206354 8.83182371201358 0 1 0
3160 151 3 0.13 12.085110867776887 15.572824047519022 5.801687282091647 0 0 1
13977 830 30 -1.7492 17.14451842978552 11.153655469228578 15.843542920368693 -1 0 1
12851 642 32 -2.1019 15.41616802388426 5.16379258600517 15.317866025036972 0 -2 1
5979 285 3 0.13 12.091060174773482 10.85790250884251 9.663515704095825 0 1 0
5985 285 8 0.418 12.725958506557161 7.788083227152184 8.190354628214358 0 1 0
12856 643 31 -1.8561 14.937481729796737 13.926957129550088 4.414224314059195 0 1 1
2940 140 8 0.418 12.273435807438558 6.676544862018862 6.160013027453347 0 0 1
2939 140 7 1.4189 12.441118874321518 6.328027873944038 7.022248082597194 0 0 1
5971 285 3 0.13 13.949810676516645 8.701532815902365 10.808268280708972 0 1 0
12335 335 27 -3.6401 12.165115960982545 12.501397717077385 6.158027133505137 0 0 0
6335 335 9 2.6401 12.177810255853034 12.496890634172578 6.142919522688551 0 0 0
5983 285 6 0.06 12.295007145565421 9.902559940548771 7.439043162137203 0 1 0
7097 642 14 1.7919 15.416687205662745 5.205608039531082 15.304737991921987 0 -2 1
5407 258 3 0.13 12.659711910426612 11.931299292657531 13.782721932479621 1 0 0
5970 285 3 0.13 14.466523163091674 9.578463485817473 12.12029861855821 0 1 0
12191 285 23 -2.4449 13.787984955418882 9.730490346966619 11.285055920349592 0 1 0
5967 285 2 2.2749 13.77655445831298 9.668164778954786 11.281253777559154 0 1 0
12494 494 27 -3.6401 18.706825477019034 4.610303244419656 7.188315592388191 0 1 1
2924 140 3 0.13 13.082460461645598 5.767882981369151 9.569677707404482 0 0 1
9349 830 10 2.1449 16.843849782125563 9.451029993710314 14.12057578542525 -1 0 1
7441 671 10 2.1449 16.645201248641825 4.84771571768213 10.330568916043243 0 0 0
9354 830 15 1.6619 16.660817437509852 11.652148437046016 13.526613700731861 -1 0 1
13980 830 33 -2.1019 16.64057551838076 11.66157142483933 13.489142116229779 -1 0 1
2847 136 3 0.13 17.59484575581015 10.48563261816507 4.411353216226729 0 0 1
5974 285 3 0.13 12.943276523995058 12.184707793136596 11.509984978576336 0 1 0
11180 140 26 -2.1019 12.489270420020581 6.3164945195609565 7.0478811969594855 0 0 1
13976 830 29 -2.0081 16.38116683234199 10.770738166122776 14.579602891732609 -1 0 1
7451 671 20 0.26 18.9231670188698 7.573872382307126 11.51826061910055 0 0 0
7445 671 14 1.7919 18.19070939680629 7.117515588617833 11.903320103463132 0 0 0
13025 671 32 -2.1019 18.163826397188974 7.101323506571673 11.90511049063665 0 0 0
3402 162 8 0.418 13.766051510500255 14.513070812290723 14.61930088359624 0 1 0
8563 764 16 0.13 13.051312388908247 5.468479549535224 13.456630483718342 -1 0 -1
2846 136 3 0.13 16.393816913622146 10.189061121701021 5.727514922819211 0 0 1
11147 136 23 -2.4449 17.47024360374519 7.867784950365173 6.389292900949268 0 0 1
7444 671 13 1.4661 16.789817919481376 7.911878608919148 10.2274442204289 0 0 0
2845 136 3 0.13 17.663190988499288 6.783926456237214 6.275275486747612 0 0 1
2837 136 2 2.2749 17.447621719458503 7.846295826061973 6.38933846847528 0 0 1
2844 136 3 0.13 18.049276503384377 8.215745384614483 7.219769946242282 0 0 1
11328 162 22 -1.9073 16.683402583228258 15.291579500824458 13.832945865940447 0 1 0
12858 643 33 -2.1019 15.069219419474045 12.0686401230598 6.5611939544518885 0 1 1
3161 151 3 0.13 12.951862216261699 15.36333985543822 7.829521344339643 0 0 1
2855 136 7 1.4189 14.611639658836033 8.053137100691101 5.1822243643033294 0 0 1
7446 671 15 1.6619 14.875870528997124 6.1768858551723405 11.251972876625775 0 0 0
13026 671 33 -2.1019 14.86030162582657 6.140352381450591 11.221025888756373 0 0 0
5982 285 6 0.06 13.9394032792829 9.753924158047319 7.694709484977116 0 1 0
11330 162 23 -2.4449 17.335909634329365 14.67967955919046 12.682700438682891 0 1 0
7113 643 18 0.12 17.62546631628163 12.738274696903046 6.276317708502939 0 1 1
5977 285 3 0.13 16.197083677475558 10.742179898606707 10.804299724464945 0 1 0
5973 285 3 0.13 14.667300144635972 12.19542179144768 11.850919094125194 0 1 0
3401 162 7 1.4189 13.857851356515393 14.220741661756716 13.725353397725165 0 1 0
11334 162 26 -2.1019 13.849562664618729 14.161110524482705 13.709727405097441 0 1 0
7105 643 10 2.1449 16.98129899125294 13.192172628318554 7.0293997667967005 0 1 1
5972 285 3 0.13 13.953884824699067 12.980967271815343 10.41796179949539 0 1 0
12853 643 28 -2.4449 16.990586071165705 13.169689223315464 7.025413633523471 0 1 1
3399 162 6 0.06 14.598757339082134 14.893239332297659 11.970380040616966 0 1 0
11333 162 25 -2.3074 14.221829745115244 15.274586620862717 12.90859472741622 0 1 0
3397 162 5 2.5824 14.228896973652441 15.318994906985505 12.903141971411335 0 1 0
7107 643 12 2.1192 15.249835977853026 14.3350175591824 5.599465494375108 0 1 1
12855 643 30 -1.7492 15.262065794689626 14.306554875862297 5.5647702014426415 0 1 1
5980 285 5 2.5824 12.999125861855843 9.68202224603223 8.24134634148172 0 1 0
12194 285 25 -2.3074 13.006545062881287 9.657900928174088 8.290156811756168 0 1 0
5981 285 3 0.13 13.381168577882857 11.768250395979216 8.743434893531202 0 1 0
5978 285 4 2.0672 13.112788619448892 10.86047090439476 9.28381555270276 0 1 0
12189 285 22 -1.9073 14.16463903006263 10.781481699236492 10.377926483900813 0 1 0
5965 285 1 2.0273 14.141530568203109 10.783628667360485 10.396698562832356 0 1 0
12192 285 23 -2.4449 15.535606444736981 10.842683281280767 9.950448837622552 0 1 0
5968 285 2 2.2749 15.527198527757168 10.818107780657868 9.947802096100189 0 1 0
12193 285 24 -2.2372 13.109011694447497 10.843149216034488 9.31358567272532 0 1 0
7114 643 19 0.12 14.913822813833523 13.75827731473853 7.598885409725019 0 1 1
7106 643 11 2.1281 15.48243504304891 13.359578880392649 6.758753157362402 0 1 1
12854 643 29 -2.0081 15.486105623455181 13.362640691644772 6.719058247812129 0 1 1
7116 643 21 0.24 14.086833940773221 12.329858226482838 6.524340318618864 0 1 1
12190 285 23 -2.4449 13.920864187452878 12.075256236779376 11.03913303321865 0 1 0
5966 285 2 2.2749 13.929644386602112 12.096516393526151 11.05456464862298 0 1 0
5976 285 3 0.13 15.824813971540827 9.90919786017861 9.424908545206435 0 1 0
5975 285 3 0.13 15.709574769350091 11.593623053763881 9.203880507925055 0 1 0
7111 643 16 0.13 17.176999087165804 12.557163019163738 7.893441340046201 0 1 1
7112 643 17 0.08 17.304268610615786 14.215944990417876 7.21829074906057 0 1 1
3384 162 2 2.2749 17.346960605137813 14.656874182445188 12.66560734651221 0 1 0
3387 162 3 0.13 16.768235472694933 13.898462705590507 12.13834841090734 0 1 0
7452 671 21 0.24 14.700257912372203 6.789349729791239 11.94987956957575 0 0 0
11152 136 26 -2.1019 14.643159462465597 8.023734229995881 5.212611756514479 0 0 1
6940 629 13 1.4661 19.200673343821208 9.915662467590664 10.665589886988993 -1 0 2
12772 629 31 -1.8561 19.198963533195023 9.916121348994967 10.672028121554655 -1 0 2
2856 136 8 0.418 13.71159424120717 8.255204884431754 4.976996383661321 0 0 1
2843 136 3 0.13 16.465742946280315 8.091118647923073 6.794409340356609 0 0 1
7110 643 15 1.6619 15.004384811532768 12.103871825232494 6.532189920722297 0 1 1
13024 671 31 -1.8561 16.780844955493112 7.933632606768064 10.216974540107847 0 0 0
2848 136 3 0.13 17.944278387840868 10.510471580891844 6.160116060993629 0 0 1
11149 136 23 -2.4449 17.41995629349251 9.971780794110659 5.3723654672035694 0 0 1
2836 136 1 2.0273 17.667893490885675 8.578402906923644 5.1572971902750915 0 0 1
11146 136 22 -1.9073 17.659950675221857 8.56979913546841 5.151109521500037 0 0 1
2839 136 2 2.2749 17.403724765463377 9.995455450614726 5.365976392015209 0 0 1
7443 671 12 2.1192 17.000454614969364 7.273401569695486 11.27934937997207 0 0 0
13023 671 30 -1.7492 16.982204649421035 7.282636438784446 11.259608268005891 0 0 0
6395 395 9 2.6401 13.709581649963 7.773353593348944 13.930484435080011 0 0 0
12395 395 27 -3.6401 13.696372416325115 7.766117223814307 13.924688835196577 0 0 0
13022 671 29 -2.0081 16.261576041743325 5.916264615871345 11.382888044315882 0 0 0
7442 671 11 2.1281 16.256789527190197 5.8933810439175565 11.379096642234435 0 0 0
3388 162 3 0.13 18.30487247923467 14.33971383452288 13.077815024871093 0 1 0
3383 162 2 2.2749 16.522883790319682 14.332784314038348 14.926598258674055 0 1 0
11329 162 23 -2.4449 16.55837667030835 14.342183049930089 14.903319771891878 0 1 0
3391 162 3 0.13 16.05091268535347 13.394191979886497 14.636082004743946 0 1 0
9350 830 11 2.1281 16.37444818419632 10.737186436054081 14.576692148620737 -1 0 1
3390 162 3 0.13 17.41677746555108 13.93312584586863 15.40548082800666 0 1 0
11148 136 23 -2.4449 19.043022071497305 8.47799524758417 4.81637425374368 0 0 1
2838 136 2 2.2749 19.066464364399664 8.464515758215416 4.796824945753634 0 0 1
12596 596 27 -3.6401 15.398601043680136 15.558307323780319 9.068655490165433 1 0 0
9358 830 19 0.12 15.295155245535927 10.67993350112483 14.717965255467691 -1 0 1
7447 671 16 0.13 16.649209935871013 5.099119496453755 9.269961282632162 0 0 0
6596 596 9 2.6401 15.405527301787417 15.54599305874186 9.115720436325965 1 0 0
5399 258 2 2.2749 12.034700094212214 11.40026983705257 14.50068530375816 1 0 0
9360 830 21 0.24 17.52729958647129 11.925713921899781 13.78621986804828 -1 0 1
7450 671 19 0.12 16.378812713907312 5.541750780158954 12.40358116239473 0 0 0
6942 629 15 1.6619 18.846477031597118 12.385436639268212 11.686843971345452 -1 0 2
12774 629 33 -2.1019 18.852014091999223 12.418573738433544 11.705275788335324 -1 0 2
6948 629 21 0.24 18.229121958699558 11.66998102854797 11.692227121410552 -1 0 2
12001 258 23 -2.4449 12.006332340392692 11.41486016631452 14.474027189772679 1 0 0
13021 671 28 -2.4449 16.62092263594874 4.847686750613778 10.348069447189816 0 0 0
13975 830 28 -2.4449 16.849887887294575 9.485781334152003 14.104763082003752 -1 0 1
7103 642 20 0.26 14.982538501466234 6.02015576731268 15.10211688144857 0 -2 1
9357 830 18 0.12 16.38791936476295 9.256183622069585 13.149867709270524 -1 0 1
7449 671 18 0.12 17.607618131832815 4.4333249895440465 10.630795190023003 0 0 0
5406 258 3 0.13 12.529828853808823 11.533432527930465 15.462565785403227 1 0 0
3386 162 3 0.13 17.61131479594225 15.4610910274956 11.978980938927581 0 1 0
9356 830 17 0.08 17.909641202773738 9.56106695902627 13.920371304470045 -1 0 1
7108 643 13 1.4661 14.946016276112202 13.92431468871985 4.450212184888636 0 1 1
6494 494 9 2.6401 18.70538051535269 4.619358917507706 7.197647118297959 0 1 1
5405 258 3 0.13 12.246077078062518 10.36754392143698 14.223364743721257 1 0 0
9355 830 16 0.13 16.671192886784983 8.601636927821563 14.781505140401874 -1 0 1
2895 138 6 0.06 15.656989115578845 5.1877392073710356 6.0453460990345 0 0 0
7115 643 20 0.26 15.277462243535846 15.57496504730826 6.887987425859851 0 1 1
3382 162 1 2.0273 16.708882476648746 15.283164065328997 13.837573353570273 0 1 0
8566 764 19 0.12 11.992154314136357 6.640308589756636 15.359433877591089 -1 0 -1
2841 136 3 0.13 19.288485073703377 7.409953799695247 4.6333772753732685 0 0 1
12857 643 32 -2.1019 15.205261376672892 15.5934554096921 5.895116973122205 0 1 1
12771 629 30 -1.7492 19.503588401183517 10.899187728968444 10.02182619122169 -1 0 2
6939 629 12 2.1192 19.51788066671649 10.88814441540917 9.993767252983792 -1 0 2
6946 629 19 0.12 19.20236405819774 13.009230858741914 9.756141362942016 -1 0 2
6938 629 11 2.1281 19.571322186582755 12.313887452585782 10.51011380025248 -1 0 2
12770 629 29 -2.0081 19.567439911237084 12.30573207782248 10.516709340579387 -1 0 2
2842 136 3 0.13 19.74178021877976 8.91571955090966 5.523778492224056 0 0 1
13282 714 31 -1.8561 19.596753161887303 11.818169046348986 5.163386954322163 0 0 2
7960 714 13 1.4661 19.607684699139973 11.834804916760847 5.158839112439596 0 0 2
2898 138 8 0.418 13.654853774503081 4.960043321956397 6.792627007281161 0 0 0
13281 714 30 -1.7492 19.710575350425074 13.014215690269241 5.077332373770715 0 0 2
7959 714 12 2.1192 19.68657184044008 13.03953777339182 5.050108087590694 0 0 2
3389 162 3 0.13 15.887128735510858 14.701004418337403 15.731789251633746 0 1 0
3394 162 3 0.13 18.53387751538613 15.74458830286231 14.789197093366417 0 1 0
11176 140 23 -2.4449 12.672024929922923 4.746735043185195 9.816383211317659 0 0 1
2922 140 2 2.2749 12.705245312922948 4.769572698854186 9.791456733350287 0 0 1
11173 139 26 -2.1019 12.323577638916762 4.2493703669497345 4.67316680428705 0 0 1
2640 126 3 0.13 19.919497821506333 4.821270124226646 4.535677786101337 0 0 1
12690 615 33 -2.1019 26.765850442490226 5.7004151683722295 6.627695506939387 0 1 -1
8404 751 13 1.4661 25.934728033673487 11.226570077493495 15.057693083020776 0 0 -2
9241 821 10 2.1449 24.611775010986822 5.765628765386249 15.4887712722032 1 0 0
6774 615 15 1.6619 26.77899987540478 5.709980433150959 6.617344527225151 0 1 -1
9826 869 19 0.12 25.45987042043383 13.947500672042997 15.361751873962996 0 0 3
9249 821 18 0.12 24.557417971895227 4.872335226407661 14.866530513818553 1 0 0
2629 126 2 2.2749 22.44385087340225 4.422108128770655 4.457242949170365 0 0 1
9824 869 17 0.08 26.408193602134197 14.198561025640489 13.009806488114304 0 0 3
14210 869 29 -2.0081 24.985473210213176 14.647360508748507 14.665584489224443 0 0 3
13339 724 28 -2.4449 27.366583267384144 14.929317558836242 8.770005174034305 1 0 1
9685 858 10 2.1449 25.97134711081252 13.386732013847407 5.611130767024085 -1 1 0
9691 858 16 0.13 26.554407356187767 12.570520724043377 6.0376800376745985 -1 1 0
9803 867 20 0.26 26.027597814355104 4.762153771989999 10.399505926715747 0 1 0
7963 714 16 0.13 22.256643869838605 12.482725841588069 4.9424176805214275 0 0 2
8410 751 19 0.12 24.490514261956854 8.738593882949012 15.538612197051037 0 0 -2
13504 751 31 -1.8561 25.9450456450862 11.245985648754978 15.051387509335003 0 0 -2
9825 869 18 0.12 24.835058363920265 14.772432827437498 12.427462276841807 0 0 3
6943 629 16 0.13 21.225376796517192 12.213476851057461 11.593600257008346 -1 0 2
9686 858 11 2.1281 26.92107117371768 14.026666373283167 4.547635818985607 -1 1 0
6778 615 19 0.12 26.328957539916505 7.707786662668342 6.933531523248155 0 1 -1
2636 126 3 0.13 22.191847318115947 4.990168210281396 5.352732897207871 0 0 1
8405 751 14 1.7919 23.752081431685223 11.485130946421481 15.309101539826745 0 0 -2
6687 608 12 2.1192 25.510066015828922 9.701358050541133 10.935718471379657 -1 0 3
8299 742 16 0.13 19.89440542916872 9.730271566778812 15.264401419718286 1 1 -2
9818 869 11 2.1281 24.996315162239274 14.636658429676627 14.655861439203544 0 0 3
14209 869 28 -2.4449 25.312482078031202 14.171089968881192 13.183168473192437 0 0 3
13921 821 28 -2.4449 24.591564397000063 5.770831949664692 15.514697259000828 1 0 0
6690 608 15 1.6619 26.192297179579093 10.1567015279577 8.689072968686606 -1 0 3
8295 742 12 2.1192 20.793508917352636 7.505380925577518 13.94756886976617 1 1 -2
7968 714 21 0.24 20.831492642420987 12.802949878301552 7.216564455073257 0 0 2
14143 858 28 -2.4449 25.97093245968913 13.392996507301186 5.628042834104141 -1 1 0
8305 743 10 2.1449 23.217556960396305 6.469291818813538 7.312512398721581 1 1 0
6696 608 21 0.24 26.57796694557711 9.31541360882851 8.880183445819878 -1 0 3
9247 821 16 0.13 25.619477600569873 6.140787055996718 15.667350973298669 1 0 0