LAMMPS data file via write_data, version 29 Oct 2020, timestep = 30000000

12000 atoms
33 atom types
11300 bonds
28 bond types
12200 angles
25 angle types
14800 dihedrals
28 dihedral types

4.846161207829953 50.15383879226185 xlo xhi
4.846161207829953 50.15383879226185 ylo yhi
4.846161207829953 50.15383879226185 zlo zhi

Masses

1 13.607
2 11.611
3 1.008
4 11.611
5 11.611
6 1.008
7 15.599
8 1.008
9 35.05300000000003
10 11.611
11 11.611
12 11.611
13 15.599
14 15.599
15 15.599
16 1.008
17 1.008
18 1.008
19 1.008
20 1.008
21 1.008
22 0.4000000000000006
23 0.4
24 0.4
25 0.4
26 0.4
27 0.3999999999999965
28 0.4
29 0.4
30 0.4
31 0.4
32 0.4
33 0.4

Bond Coeffs # harmonic

1 382.003 1.448
2 339.986 1.09
3 267.925 1.529
4 320.005 1.41
5 553 0.945
6 267.997 1.529
7 340.01 1.09
8 340.01 1.09
9 340.01 1.09
10 316.993 1.522
11 320.005 1.41
12 340.01 1.09
13 570.005 1.229
14 450 1.364
15 553.011 0.945
16 553.011 0.945
17 500 0
18 500 0
19 500 0
20 500 0
21 500 0
22 500 0
23 500 0
24 500 0
25 500 0
26 500 0
27 500 0
28 500 0

Angle Coeffs # harmonic

1 51.8045 107.2
2 35.0024 109.5
3 32.9947 107.8
4 56.2022 109.5
5 37.5 110.7
6 50 109.5
7 35.0024 109.5
8 54.9952 108.5
9 37.5 110.7
10 37.5 110.7
11 37.5 110.7
12 33.0067 107.8
13 33.0067 107.8
14 33.0067 107.8
15 63.0019 111.1
16 50 109.5
17 37.5 110.7
18 51.6491 110.5
19 34.9904 109.5
20 34.9904 109.5
21 79.9952 120.4
22 70.0048 108
23 79.9952 121
24 34.9904 113
25 54.9952 108.5

Dihedral Coeffs # opls

1 0 0 0.55999 0
2 0.415989 -0.128011 0.695005 0
3 -1.013 -0.709011 0.472992 0
4 -10.5286 -1.29897 0 0
5 0 0 0.3 0
6 0 0 0.467997 0
7 -0.355999 -0.173996 0.491993 0
8 0 0 0.45 0
9 0 0 -0.1 0
10 0 0 0.467997 0
11 0 0 0.3 0
12 0 0 -0.1 0
13 0 0 0.467997 0
14 0 0 0.3 0
15 0 0 -0.1 0
16 0 0 0.467997 0
17 0 0 0.3 0
18 0 0 0 0
19 1 0.546009 0.45 0
20 0 0 0 0
21 9.50801 0 0 0
22 0 0 0 0
23 0 0 0 0
24 -0.355999 -0.173996 0.491993 0
25 -0.355999 -0.173996 0.491993 0
26 0 0 0.352008 0
27 1.5 5.5 0 0
28 0 5.5 0 0

Atoms # full

8449 36 23 -2.4449 8.343830598196991 11.254669753902412 6.003208233655132 1 0 1
739 36 2 2.2749 8.355116028860072 11.271277770271238 5.989839286981203 1 0 1
752 36 3 0.13 7.351820241564499 9.041969127539444 5.64561522058965 1 0 1
8446 36 22 -1.9073 7.678370478035914 10.594638270873734 7.14334276019498 1 0 1
747 36 3 0.13 8.95889093855741 12.10537508361275 6.347388609839098 1 0 1
8450 36 24 -2.2372 6.852526867368077 9.607220054772716 6.492058374028421 1 0 1
736 36 1 2.0273 7.68413683419226 10.570189157864663 7.12401123462557 1 0 1
749 36 4 2.0672 6.841426829850487 9.559228957662343 6.458033853134305 1 0 1
8448 36 23 -2.4449 8.722362571349166 9.933910334313321 7.845991247961383 1 0 1
738 36 2 2.2749 8.735311364848231 9.914851167622325 7.8712572549785875 1 0 1
742 36 3 0.13 9.517720185886251 10.643807638416488 8.082355132318996 1 0 1
740 36 3 0.13 9.207916781030203 8.992867078539717 7.5326234119410715 1 0 1
4420 385 21 0.24 10.17846884427879 7.873697822596579 9.170613122969943 2 1 4
10107 385 30 -1.7492 10.099640111574542 8.607670396793663 11.30528941525785 2 1 4
10108 385 31 -1.8561 9.401419486394495 9.622565760361004 11.206022053786729 2 1 4
4411 385 12 2.1192 10.10164793454827 8.551231501479394 11.336932843767496 2 1 4
10109 385 32 -2.1019 9.991873389015707 7.842824549087455 12.4897136977318 2 1 4
4412 385 13 1.4661 9.440610747790966 9.593009543281056 11.205293941037347 2 1 4
4413 385 14 1.7919 10.024031675468546 7.798768206454978 12.521300107018845 2 1 4
2162 162 9 2.6401 8.643314491771926 6.681782588331332 9.151435812327394 3 1 1
8962 162 27 -3.6401 8.62451116681232 6.680442437739637 9.133047388255983 3 1 1
8823 89 26 -2.1019 6.996898923478044 9.682469209615103 12.903899202191411 2 1 0
1868 89 7 1.4189 7.0137054593943695 9.659176711571886 12.856451095250046 2 1 0
1869 89 8 0.418 7.90641250497228 9.909842234906492 12.67406718162388 2 1 0
750 36 3 0.13 6.052096944303523 10.148036764798377 5.990756588693808 1 0 1
1866 89 6 0.06 7.0720514785141955 9.212694461039895 10.859468716416227 2 1 0
8114 693 19 0.12 9.970695840889697 12.295032339414881 13.505213119281395 -2 0 -3
11954 693 29 -2.0081 9.578851023829737 12.995108982455845 12.75760776984234 -2 0 -3
8106 693 11 2.1281 9.594564091716489 13.001383560798734 12.765155152942114 -2 0 -3
8110 693 15 1.6619 9.824623363246152 12.390362262542133 11.56832521756242 -2 0 -3
11958 693 33 -2.1019 9.857122376474925 12.41145559820704 11.5549136785498 -2 0 -3
8105 693 10 2.1449 10.366236838967712 14.284226362403775 12.747702696693485 -2 0 -3
11953 693 28 -2.4449 10.384505186254227 14.264919705133499 12.73048832170181 -2 0 -3
8113 693 18 0.12 11.44943550529146 14.207082003108253 12.653753943113253 -2 0 -3
8116 693 21 0.24 9.059697076581557 11.86100067269227 11.401974437785505 -2 0 -3
11955 693 30 -1.7492 8.105613284097709 13.149802524034412 13.011872770195092 -2 0 -3
8107 693 12 2.1192 8.10149232766992 13.150253253287389 13.047227953413463 -2 0 -3
8112 693 17 0.08 9.944279310770604 14.806447421412017 11.889028918066117 -2 0 -3
8111 693 16 0.13 10.293085193221694 14.878207682483668 13.658711007034174 -2 0 -3
11956 693 31 -1.8561 7.189211046027005 13.278704994922563 12.217101594544609 -2 0 -3
1354 65 3 0.13 8.828700155482185 7.205463416424949 6.205397901507724 2 0 1
743 36 3 0.13 6.457579806544885 10.893377141811648 8.90149368986215 1 0 1
8108 693 13 1.4661 7.203028755485613 13.281755096639632 12.21779907026494 -2 0 -3
8109 693 14 1.7919 7.95557544269228 13.154867530426058 14.422742690523238 -2 0 -3
11957 693 32 -2.1019 7.9682861444251145 13.151750626118167 14.396084824126886 -2 0 -3
8115 693 20 0.26 7.060037705783746 13.186796947787187 14.722753640762589 -2 0 -3
745 36 3 0.13 7.474538275422091 12.228884163843308 8.40682856478101 1 0 1
1352 65 3 0.13 9.973055604956556 6.153109556644254 6.875794194192451 2 0 1
741 36 3 0.13 8.338984036884444 9.638283745057315 8.848256342406541 1 0 1
1867 89 6 0.06 6.707390370714739 7.880080757255595 11.835813009781079 2 1 0
8447 36 23 -2.4449 6.85747139943464 11.452213056544538 8.046464851014727 1 0 1
737 36 2 2.2749 6.845079237225378 11.422357315010494 8.030796605976914 1 0 1
744 36 3 0.13 5.990980635221158 11.872165063412575 7.5245643605372585 1 0 1
3914 343 19 0.12 6.435251863946338 6.075651618098133 10.722506750129913 -5 7 7
8928 128 27 -3.6401 12.258132317812251 5.89555335416497 12.795351690242441 0 0 0
1864 89 5 2.5824 6.516790848994882 8.950603112841664 11.760070093421003 2 1 0
8451 36 25 -2.3074 6.20459951951393 8.534537522479104 7.338680145750284 1 0 1
751 36 5 2.5824 6.188190765684152 8.510925441248848 7.329951746886454 1 0 1
3906 343 11 2.1281 5.890651773927806 5.227207197141626 11.1368138299906 -5 7 7
8822 89 25 -2.3074 6.516547095562926 8.959960261278594 11.802200519081364 2 1 0
9854 343 29 -2.0081 5.882118924431897 5.213817669765605 11.109340425284289 -5 7 7
6507 559 20 0.26 11.254501935237265 13.157505969066179 10.522191676559936 2 1 -2
4414 385 15 1.6619 11.02431305095268 8.288522767373452 9.244620700120954 2 1 4
10110 385 33 -2.1019 11.089097563573153 8.319535566565296 9.19942521927683 2 1 4
10106 385 29 -2.0081 11.426444703815159 8.401484524949085 10.579426991325537 2 1 4
4410 385 11 2.1281 11.445386970807874 8.392229817109175 10.586648460758287 2 1 4
4418 385 19 0.12 12.037975044061874 7.52013458216753 10.863015884316447 2 1 4
4419 385 20 0.26 10.791307251517596 7.268132689032566 12.672077005661192 2 1 4
6754 580 15 1.6619 6.6574544176940815 14.69042325395971 5.232015449225192 -3 -5 -1
753 36 6 0.06 6.742455346402049 8.051446328064277 8.148344498499123 1 0 1
4406 384 19 0.12 9.235177577605107 15.389403635217644 8.94242086256378 -2 -4 4
748 36 3 0.13 7.654534548353357 11.868769340943857 5.406509465201737 1 0 1
3189 283 14 1.7919 8.10919145602483 10.24701116924977 15.584220743095834 -6 0 -2
1862 89 4 2.0672 5.02577017363181 9.145518300969432 11.561450906905424 2 1 0
11152 559 31 -1.8561 11.009529759675775 13.112817943957644 8.15967270412818 2 1 -2
6500 559 13 1.4661 11.026891239182719 13.124961383631703 8.169932473627918 2 1 -2
8452 36 26 -2.1019 5.011788468470575 9.051008365414894 7.992771283903074 1 0 1
2128 128 9 2.6401 12.304162184479846 5.89987586550765 12.81124385611393 0 0 0
8650 65 23 -2.4449 9.141408073633347 6.12595062019079 6.1182561248221035 2 0 1
9497 283 32 -2.1019 8.15182071651623 10.264528698277159 15.606510134160363 -6 0 -2
1346 65 2 2.2749 9.143739944243487 6.162637820686755 6.168513092555967 2 0 1
1353 65 3 0.13 8.337157110795262 5.588948745311091 6.625007709556434 2 0 1
3187 283 12 2.1192 9.391772507589069 10.252209413818711 15.823768510470085 -6 0 -2
9496 283 31 -1.8561 10.324230578982696 10.436813430641187 15.034556105926292 -6 0 -2
4409 385 10 2.1449 12.312765097243664 9.658871333644242 10.637992366135386 2 1 4
10105 385 28 -2.4449 12.332904106072498 9.656050744486588 10.617327120699665 2 1 4
4415 385 16 0.13 12.133477744656954 10.078293132559242 11.627962504106018 2 1 4
4416 385 17 0.08 11.887423812151514 10.412706056503005 9.97549318550463 2 1 4
3188 283 13 1.4661 10.318354275915713 10.428142438394369 15.045877957949529 -6 0 -2
3195 283 20 0.26 7.826742498458541 10.3163342641677 14.685094744101804 -6 0 -2
755 36 7 1.4189 4.985756335741519 9.002464498235712 7.998385163329048 1 0 1
11280 580 33 -2.1019 6.650239382478917 14.669063470163085 5.257362494481114 -3 -5 -1
11153 559 32 -2.1019 11.91724045479523 13.709193294089118 10.04440688137125 2 1 -2
6501 559 14 1.7919 11.897271275976944 13.70030884002506 10.091813532339378 2 1 -2
6499 559 12 2.1192 11.90902982134412 13.783431359979838 8.74626765887885 2 1 -2
11151 559 30 -1.7492 11.911495575730813 13.776892825144833 8.694308282079636 2 1 -2
3913 343 18 0.12 7.088104034313487 5.120207022227165 12.955615306720487 -5 7 7
1861 89 3 0.13 4.981584665264662 10.884360967653498 13.884670427109231 2 1 0
746 36 3 0.13 9.14028633009848 10.818155234983458 5.384632645347046 1 0 1
8821 89 24 -2.2372 5.060235882905622 9.164271172036612 11.584034779356871 2 1 0
1359 65 3 0.13 11.50238393739458 6.287302024874413 4.950476040655568 2 0 1
6531 561 20 0.26 5.889034108391963 15.705699479898895 13.116194083234259 -2 -6 0
1734 83 3 0.13 12.314107843561171 8.21290545604914 6.491713424403309 0 0 1
11165 561 32 -2.1019 5.0717339795100695 15.778183717705769 12.587764296906224 -2 -6 0
4491 391 20 0.26 10.017932272199644 14.88871631415983 5.0478589782536645 -1 0 0
5650 488 15 1.6619 4.977696711415887 13.637010694591423 15.676788753062395 4 5 1
11577 630 30 -1.7492 11.693415145651002 4.8509358266797244 9.155179957940351 -2 1 -2
6525 561 14 1.7919 5.09485214717326 15.743324972294003 12.605425852454182 -2 -6 0
9218 237 29 -2.0081 10.256231952671122 5.259914685100433 15.540686678285502 5 2 -2
10728 488 33 -2.1019 4.986591680652324 13.617707027208834 15.643347491709287 4 5 1
3915 343 20 0.26 7.066308304545333 5.456922950509421 9.209878351693607 -5 7 7
754 36 6 0.06 5.806618368103963 7.645118425426144 6.788789983731301 1 0 1
7360 630 21 0.24 9.30006482450305 4.854612864889199 9.457277103906398 -2 1 -2
1865 89 3 0.13 4.859979858460267 10.002277527501793 10.908329806195596 2 1 0
7351 630 12 2.1192 11.70965607357916 4.8811396509608755 9.198923851323299 -2 1 -2
1855 89 3 0.13 5.386674484424665 8.456837614980873 14.208164268628922 2 1 0
4935 428 20 0.26 4.890835370567043 6.28643892162693 15.575713113469575 -5 3 -1
2634 237 11 2.1281 10.271105609121841 5.259871242167873 15.541287634788207 5 2 -2
9495 283 30 -1.7492 9.429255857620426 10.25857266879901 15.832066331866164 -6 0 -2
5656 488 21 0.24 5.197851676386005 14.526469370407678 15.90791717230355 4 5 1
2642 237 19 0.12 10.872880474145504 5.966284711087645 14.969498730156834 5 2 -2
4310 376 19 0.12 12.295199307252044 7.683089248778587 16.089850517673195 5 5 2
588 28 8 0.418 4.993520873345304 5.854656443293306 4.966464574443265 2 0 1
6505 559 18 0.12 14.807529284976631 15.5592864864651 7.792352703564016 2 1 -2
4099 359 12 2.1192 19.15878955734506 10.231112874497033 15.45956508993965 -1 4 -1
3249 288 14 1.7919 18.769819939570322 16.146522241046302 9.729392596298968 0 5 -2
7359 630 20 0.26 12.624632700110498 5.432410241668739 10.739726031885777 -2 1 -2
3255 288 20 0.26 19.445335764616818 15.925662363661415 10.352227246469875 0 5 -2
9953 359 32 -2.1019 19.432665278726486 11.088095342451734 14.527145556840349 -1 4 -1
4106 359 19 0.12 17.442188855844662 11.320540142457059 15.665985125641042 -1 4 -1
4100 359 13 1.4661 19.882523886168602 9.256225592083087 15.630833371245169 -1 4 -1
3253 288 18 0.12 18.42070493509174 16.037800961285964 6.681481718881715 0 5 -2
268 13 5 2.5824 19.016086908363096 5.009873989822528 6.097039657038858 1 0 0
6503 559 16 0.13 14.2588014240499 15.577669958225588 9.383539874337357 2 1 -2
1733 83 3 0.13 12.705762403746313 7.519602143496291 7.996433968165307 0 0 1
1735 83 3 0.13 12.402891353687338 9.22383555883867 7.867304262167105 0 0 1
9642 307 33 -2.1019 15.216100228348102 13.81785729978903 11.150889972519861 2 -4 1
3484 307 21 0.24 14.719394505259977 13.902582787904247 11.9742946556688 2 -4 1
3480 307 17 0.08 17.75395017513653 11.730325449554934 11.883357055810174 2 -4 1
4306 376 15 1.6619 13.710150907524978 6.632533834088897 15.320746375192488 5 5 2
10052 376 29 -2.0081 13.384768788456517 7.671863400851958 16.170709211227503 5 5 2
1741 83 6 0.06 13.812481572405943 5.735822600852426 6.7185061491313105 0 0 1
1740 83 6 0.06 15.605665359981007 5.440638271347566 6.624139003336528 0 0 1
3478 307 15 1.6619 15.207001899917605 13.794743225413848 11.172029456858043 2 -4 1
3044 271 13 1.4661 18.043364032109444 8.002229638592352 8.985557728024839 7 -1 0
3051 271 20 0.26 16.02463764913137 6.92066801979108 9.568851609789107 7 -1 0
3045 271 14 1.7919 16.520156585088486 7.037967085524621 10.364911140592584 7 -1 0
3043 271 12 2.1192 17.796182247113617 7.445535233033747 10.033377104069034 7 -1 0
9423 271 30 -1.7492 17.831867906591054 7.467477783280061 10.023876546004482 7 -1 0
9425 271 32 -2.1019 16.558445305780424 7.079861975915104 10.375740689752892 7 -1 0
3050 271 19 0.12 18.611388820895115 6.677811320919194 11.808784241356038 7 -1 0
1729 83 3 0.13 15.370268614923873 10.12297822457965 6.115761321499166 0 0 1
271 13 6 0.06 18.293878487977658 5.814855465010661 6.233095516138981 1 0 0
4303 376 12 2.1192 13.96500105524544 8.915662257401507 15.459689121408298 5 5 2
4304 376 13 1.4661 14.835145701543082 8.920650139844682 14.614366123044283 5 5 2
3048 271 17 0.08 17.10784710869335 8.288524037514115 12.615606177681162 7 -1 0
1737 83 3 0.13 14.411110978812921 7.456038046762681 5.388439719622096 0 0 1
4417 385 18 0.12 13.323124312102399 9.463802875582093 10.278526277271448 2 1 4
3483 307 20 0.26 15.054726585302259 9.835598443140462 12.850125191720606 2 -4 1
8780 83 25 -2.3074 14.824200015239864 6.149055479190157 7.018165823531949 0 0 1
1738 83 5 2.5824 14.810004159986972 6.115779466143409 6.939092608937083 0 0 1
1726 83 2 2.2749 12.916919033178177 8.39445382323737 7.3815084696503215 0 0 1
8778 83 23 -2.4449 12.944735660179076 8.415793122473618 7.340234178636428 0 0 1
8779 83 24 -2.2372 14.932848634322447 7.527056577364261 6.366903490890278 0 0 1
1736 83 4 2.0672 14.931108704409624 7.516188519169003 6.344505460727008 0 0 1
6502 559 15 1.6619 13.359983015241705 13.535652508539515 6.937562368576883 2 1 -2
11154 559 33 -2.1019 13.399764166510062 13.545304929089202 6.9189794775351245 2 1 -2
6498 559 11 2.1281 13.319360132388834 13.972101728787925 8.294351226433724 2 1 -2
11150 559 29 -2.0081 13.312272391903765 13.96374948504633 8.285861284047785 2 1 -2
3475 307 12 2.1192 14.948346241009238 11.621949629705048 12.191529319340153 2 -4 1
1739 83 3 0.13 15.998160074346195 7.6834290804140934 6.197773226209787 0 0 1
9639 307 30 -1.7492 14.942815931775446 11.657310158237062 12.198005342464253 2 -4 1
1727 83 3 0.13 13.744579288587175 10.64060713713392 6.5847035614061795 0 0 1
1723 83 1 2.0273 14.347662619581795 8.614516671680946 7.081146641405944 0 0 1
8775 83 22 -1.9073 14.369113780592821 8.606939742535507 7.086905747727897 0 0 1
8777 83 23 -2.4449 14.32424920950374 9.80591171853882 6.149000549496627 0 0 1
1725 83 2 2.2749 14.322101399864057 9.825678143049732 6.1482932191149935 0 0 1
6699 575 20 0.26 19.151577018741197 9.214206821804787 4.849243036606872 0 0 0
11149 559 28 -2.4449 13.913784092434952 15.3846463466609 8.347144759249277 2 1 -2
1732 83 3 0.13 14.462068743209878 9.902012799987153 8.612893193151855 0 0 1
1731 83 3 0.13 14.913519386261465 8.31500886069033 9.13621070557848 0 0 1
1724 83 2 2.2749 14.983035829228426 9.000183080068314 8.291347279248289 0 0 1
8776 83 23 -2.4449 14.957000190774417 9.02845104729509 8.290764179429674 0 0 1
1730 83 3 0.13 16.013268671071202 9.355175761353532 8.264868853180253 0 0 1
9640 307 31 -1.8561 14.446801772593709 12.065738178246933 13.231273708272921 2 -4 1
3476 307 13 1.4661 14.44479478703256 12.062415712205626 13.220746518257462 2 -4 1
9641 307 32 -2.1019 15.347857279501412 10.34640968757958 12.07092460914631 2 -4 1
3477 307 14 1.7919 15.347901267569489 10.309490011330679 12.086913147248035 2 -4 1
6506 559 19 0.12 13.983949451990878 13.27710325900074 8.80756834322941 2 1 -2
11936 690 29 -2.0081 18.184499378069027 12.411746024688718 8.192626022587397 0 -2 1
8070 690 11 2.1281 18.22210194749617 12.408357670061944 8.200565153412562 0 -2 1
8078 690 19 0.12 18.167519137543124 13.120804617278317 9.023694252813826 0 -2 1
8073 690 14 1.7919 16.62911923962974 13.533546500888674 7.040465884893585 0 -2 1
11939 690 32 -2.1019 16.651039965124323 13.514820305262257 7.046575457995942 0 -2 1
6508 559 21 0.24 12.527307436730215 13.206167513830128 6.635735346044574 2 1 -2
8079 690 20 0.26 15.689730190057949 13.626099622341757 6.995810938603585 0 -2 1
8071 690 12 2.1192 16.914832158293393 12.287260537170202 7.557715565315434 0 -2 1
11937 690 30 -1.7492 16.898688878629798 12.250056895519737 7.567976789474273 0 -2 1
8072 690 13 1.4661 15.969804541183494 11.714408802973173 8.064646410140563 0 -2 1
11938 690 31 -1.8561 15.94781866618166 11.702841325095706 8.08572625658302 0 -2 1
8080 690 21 0.24 17.551203216069663 11.00235123862155 9.121596028453853 0 -2 1
11940 690 33 -2.1019 18.420550851166276 11.12688869675562 8.701173307843261 0 -2 1
8074 690 15 1.6619 18.389464723124195 11.118832013202779 8.70116299140259 0 -2 1
10054 376 31 -1.8561 14.850127032567503 8.936723660635991 14.595173778624783 5 5 2
9424 271 31 -1.8561 18.03672132125728 8.010807041240145 8.972841082302573 7 -1 0
9638 307 29 -2.0081 15.774526431698472 12.527367823614268 11.287237014808028 2 -4 1
3474 307 11 2.1281 15.790336882953182 12.525244527578161 11.28874707278782 2 -4 1
10053 376 30 -1.7492 13.98513589950328 8.883714494464098 15.437167477627536 5 5 2
3473 307 10 2.1449 17.248617014736077 12.693098390177074 11.80724336386873 2 -4 1
3482 307 19 0.12 15.849058973376472 12.053333601881917 10.30796658449176 2 -4 1
4311 376 20 0.26 14.14069690197355 10.77544196409671 15.799245421931637 5 5 2
4305 376 14 1.7919 13.575787240481931 10.057118364636288 16.039893991416413 5 5 2
10055 376 32 -2.1019 13.583600126820293 10.025399318049597 16.030377592095725 5 5 2
9637 307 28 -2.4449 17.236987133426332 12.698277445864365 11.795573280312023 2 -4 1
1742 83 7 1.4189 14.96964267500222 6.177996897717007 8.313805432612456 0 0 1
8781 83 26 -2.1019 14.980100356693923 6.207614301949223 8.365353690872283 0 0 1
1743 83 8 0.418 14.723243521891819 5.2963301234759985 8.548247356861923 0 0 1
4312 376 21 0.24 13.086556359844646 6.714545339089797 14.615470741192821 5 5 2
3481 307 18 0.12 17.279192747491106 13.179916588365666 12.782012427773266 2 -4 1
3479 307 16 0.13 17.800013378969474 13.29909753410257 11.08834123487707 2 -4 1
3705 326 14 1.7919 15.567070916255252 5.740014458831368 13.242796841925019 0 0 1
10056 376 33 -2.1019 13.728326856917079 6.600892376844259 15.355751682870066 5 5 2
9952 359 31 -1.8561 19.886814867679043 9.262326366956406 15.614521815385086 -1 4 -1
8290 13 25 -2.3074 19.03235818292986 5.046757507389076 6.093916606310539 1 0 0
8069 690 10 2.1449 19.480259429495597 12.738080385636026 7.359662888846818 0 -2 1
11935 690 28 -2.4449 19.477910303665023 12.723387883153492 7.374792133195841 0 -2 1
8077 690 18 0.12 19.32746907147215 13.443028323535396 6.542478036536723 0 -2 1
7353 630 14 1.7919 12.811944294086345 5.403275700510044 9.8139358930496 -2 1 -2
8075 690 16 0.13 19.830822045836193 11.80756403277945 6.91320271916376 0 -2 1
4108 359 21 0.24 16.812995462776765 9.184150559020985 15.697508489248614 -1 4 -1
11579 630 32 -2.1019 12.79128732985736 5.37757585508913 9.765256805967306 -2 1 -2
9755 326 32 -2.1019 15.599607594304683 5.705032159957609 13.224744550311229 0 0 1
3049 271 18 0.12 18.11925559714421 9.582188736592949 11.811549829781777 7 -1 0
9422 271 29 -2.0081 18.711654669155674 7.606200100472879 11.2368808196646 7 -1 0
3042 271 11 2.1281 18.708228356272492 7.6034577148568605 11.24143343383852 7 -1 0
9421 271 28 -2.4449 18.10050530207271 8.601436155656431 12.253391606679443 7 -1 0
3041 271 10 2.1449 18.090542743276586 8.583735480880897 12.24785369579065 7 -1 0
1728 83 3 0.13 14.015470048626096 9.587852447639916 5.129719030891549 0 0 1
6497 559 10 2.1449 13.900119904935062 15.388855883646157 8.371710370117409 2 1 -2
3047 271 16 0.13 18.687511917812508 8.52783752294578 13.158130863417158 7 -1 0
6693 575 14 1.7919 19.500005205766215 8.760265540491275 5.601272629272788 0 0 0
11249 575 32 -2.1019 19.548157271484413 8.741331260288762 5.623692018904357 0 0 0
4101 359 14 1.7919 19.443167624655267 11.100216388364808 14.511126752567652 -1 4 -1
3711 326 20 0.26 14.889026497585345 5.729633393573975 13.900949622643502 0 0 1
9951 359 30 -1.7492 19.148931142640443 10.22245030424332 15.481905629351285 -1 4 -1
4107 359 20 0.26 20.25720385918575 10.860134181089737 14.095526309730003 -1 4 -1
6695 575 16 0.13 20.40470866982641 9.977863624414969 7.922940987032771 0 0 0
8195 700 16 0.13 26.049221113713315 9.431207740441682 11.592901879546577 2 4 3
9418 270 31 -1.8561 24.580793704989663 15.681661629035206 5.895760629939127 -4 -2 -1
3033 270 14 1.7919 22.839376809319994 16.100462373527762 7.155890463965299 -4 -2 -1
3032 270 13 1.4661 24.557397534111065 15.660552506705363 5.906980688908692 -4 -2 -1
11751 659 30 -1.7492 21.958237075806565 5.2661462263192655 14.955104031878742 -7 -4 -1
3335 295 16 0.13 24.5415821415125 9.0650276493267 16.138771021140823 -2 1 0
9419 270 32 -2.1019 22.864139418151318 16.054516770933393 7.155354243267516 -4 -2 -1
7706 659 19 0.12 20.15061238811488 6.282386839631088 15.343580210624902 -7 -4 -1
5239 454 12 2.1192 21.13162933432441 13.406134042948379 11.915986185044435 -4 0 8
10521 454 30 -1.7492 21.12301641466534 13.426577209200422 11.872097975154272 -4 0 8
3332 295 13 1.4661 23.447697907484102 12.231705319382828 14.305802735033295 -2 1 0
7523 644 16 0.13 26.71887184145274 10.8370538517872 4.974573480676891 -1 -7 5
2846 254 19 0.12 27.053699230297006 4.9045015220742965 9.275763396688978 0 1 1
11750 659 29 -2.0081 20.49990261922884 5.250073940551528 15.477995870753704 -7 -4 -1
3336 295 17 0.08 23.02584207778458 9.393822684430951 15.442696991780005 -2 1 0
10522 454 31 -1.8561 20.39180922260072 14.0199489276245 11.0621821932355 -4 0 8
7707 659 20 0.26 23.49984055668397 6.056968808493931 15.780816407348901 -7 -4 -1
5240 454 13 1.4661 20.410632365088944 13.992651129975721 11.08396119047089 -4 0 8
11753 659 32 -2.1019 22.548132860970483 6.245686009447109 15.7306777561749 -7 -4 -1
6690 575 11 2.1281 21.394722160375565 8.284897532681898 7.0317493296486075 0 0 0
10523 454 32 -2.1019 20.856638622963974 13.281001724730825 13.225410694711845 -4 0 8
5248 454 21 0.24 22.67179812329495 13.7630334309026 9.792494300082488 -4 0 8
5241 454 14 1.7919 20.867735796202748 13.280131761173061 13.272891603235731 -4 0 8
7698 659 11 2.1281 20.492965121009657 5.256366417747831 15.47837933979688 -7 -4 -1
6916 593 21 0.24 26.00046927401727 6.8515328433146365 15.698357792291699 1 9 1
5238 454 11 2.1281 22.629297000599276 13.348744716659326 11.550758816211296 -4 0 8
10520 454 29 -2.0081 22.604646660366754 13.340229189732945 11.538673572071605 -4 0 8
8197 700 18 0.12 25.960518023229525 10.798524854029198 10.492251625563709 2 4 3
272 13 7 1.4189 20.39939275300779 5.376372749452839 5.8305053146374215 1 0 0
5244 454 17 0.08 24.360447954924474 14.700044392958409 11.508374845759546 -4 0 8
10524 454 33 -2.1019 22.941255270178225 12.995154953247107 10.254687150089525 -4 0 8
8189 700 10 2.1449 26.2472874131104 9.749766715522394 10.569484292746058 2 4 3
8196 700 17 0.08 25.495912548108635 9.129051977475896 10.08140241246337 2 4 3
9416 270 29 -2.0081 23.586240093523916 13.85357740131693 7.050493959964863 -4 -2 -1
5242 454 15 1.6619 22.914615752717047 12.988600164734226 10.276550366955615 -4 0 8
6700 575 21 0.24 23.222874294823747 8.187007687133356 6.189569239447396 0 0 0
6691 575 12 2.1192 20.76742440038721 8.306239191439527 5.6145452032256635 0 0 0
5237 454 10 2.1449 23.271812008224874 14.67825058837489 11.558323860448896 -4 0 8
2557 230 18 0.12 26.22924979143665 16.045157854258125 12.44607251584021 -3 0 3
11250 575 33 -2.1019 22.80151640976553 7.881176514130878 6.970309284782434 0 0 0
3035 270 16 0.13 24.62182425665725 14.084920186566386 9.001349689316667 -4 -2 -1
3037 270 18 0.12 24.82562736574819 12.523392007172536 8.233747701530728 -4 -2 -1
5245 454 18 0.12 22.99825171455037 15.346236805340428 12.37506036577289 -4 0 8
700 34 3 0.13 23.212998119953262 5.217647621960065 5.391850045091439 3 1 0
3046 271 15 1.6619 20.01910705023661 7.903806994402299 10.92914231959607 7 -1 0
9426 271 33 -2.1019 20.02941702598084 7.9081428292610765 10.947741949514668 7 -1 0
5243 454 16 0.13 22.829995037926032 15.175238809876241 10.694678251569876 -4 0 8
5246 454 19 0.12 23.049160761635306 12.562734538901413 12.17844844835966 -4 0 8
3038 270 19 0.12 22.66348291400015 13.686863471047582 7.615664996374784 -4 -2 -1
3040 270 21 0.24 23.473034056181646 12.013120437569473 6.350904153019119 -4 -2 -1
8076 690 17 0.08 20.28051871198506 13.191385550070247 7.944644770478454 0 -2 1
6696 575 17 0.08 21.80835298197804 10.522541407090792 7.019364152533842 0 0 0
6694 575 15 1.6619 22.77727548281592 7.880063793169798 6.964323576938463 0 0 0
11995 700 28 -2.4449 26.242875710069487 9.742787519817293 10.560271062205297 2 4 3
10519 454 28 -2.4449 23.278316528908633 14.65450954438417 11.535290605535057 -4 0 8
6689 575 10 2.1449 21.42380605673257 9.71365680924883 7.640591647644286 0 0 0
9569 295 32 -2.1019 25.24033638423845 10.889388648135 14.414186527954117 -2 1 0
3331 295 12 2.1192 24.301271479516778 11.67601941520342 14.982937982797282 -2 1 0
11247 575 30 -1.7492 20.821295627403188 8.320652784789498 5.601774876506382 0 0 0
3333 295 14 1.7919 25.277616327816872 10.87241335966832 14.414977464177175 -2 1 0
9567 295 30 -1.7492 24.255022630528167 11.704171510476238 14.967188559075879 -2 1 0
2848 254 21 0.24 25.940297460632756 5.041178223909322 7.446847335737658 0 1 1
6698 575 19 0.12 20.89885454188139 7.587422401711481 7.706826530384794 0 0 0
3034 270 15 1.6619 23.781858983215805 12.849264852303085 6.037053842999359 -4 -2 -1
3339 295 20 0.26 25.88154073092349 10.477311416996136 15.025052799003703 -2 1 0
9420 270 33 -2.1019 23.792995356745326 12.829023558241484 6.0267856933802415 -4 -2 -1
3031 270 12 2.1192 23.601264059524997 15.231003054775819 6.4561491485519475 -4 -2 -1
7699 659 12 2.1192 21.972834899144534 5.286152542543659 14.964060368622807 -7 -4 -1
3052 271 21 0.24 19.991749620947097 8.52700723688585 10.219290493050375 7 -1 0
8291 13 26 -2.1019 20.415255296814472 5.412901735277299 5.821857361287029 1 0 0
6697 575 18 0.12 22.061315114412665 9.684956861009871 8.524254546570742 0 0 0
3325 294 18 0.12 27.470607618984545 16.054910584116115 7.7650082121625745 -1 -1 0
9415 270 28 -2.4449 24.761500596286975 13.582761927556842 8.017028896252974 -4 -2 -1
11245 575 28 -2.4449 21.44530623940379 9.724928488901186 7.63697161122794 0 0 0
9417 270 30 -1.7492 23.641383474619072 15.218888962682797 6.428889794241515 -4 -2 -1
3030 270 11 2.1281 23.594892953508616 13.839054731741763 7.0703224117332875 -4 -2 -1
5247 454 20 0.26 21.622584032543152 13.037241596560218 13.786926514841994 -4 0 8
9568 295 31 -1.8561 23.407476344640482 12.244560031709556 14.271408260818161 -2 1 0
11246 575 29 -2.0081 21.404289043949742 8.288474529960654 7.0307215927086 0 0 0
3029 270 10 2.1449 24.76966588148324 13.594427605858538 8.039237446466666 -4 -2 -1
7701 659 14 1.7919 22.57816110459838 6.259982994386051 15.732711702001833 -7 -4 -1
3036 270 17 0.08 25.711660333654812 13.942307488891428 7.615300405709565 -4 -2 -1
701 34 3 0.13 25.889004612523955 4.964922824691801 5.016483845770947 3 1 0
699 34 3 0.13 23.38616022217044 6.854748143811239 4.903414359722397 3 1 0
5648 488 13 1.4661 6.234618220756768 14.64397588776593 17.719280741907212 4 5 1
10725 488 30 -1.7492 5.227825240715158 14.041356807751734 17.87246851421466 4 5 1
10364 428 29 -2.0081 6.170460904343474 7.330698277943839 18.319273543141634 -5 3 -1
8466 38 26 -2.1019 7.966226989385402 10.322982643692166 27.308592693779296 1 0 1
797 38 7 1.4189 7.9595793892272795 10.284718468333923 27.294209184902428 1 0 1
787 38 3 0.13 8.42721532796133 13.338745880383657 26.652761826386268 1 0 1
10368 428 33 -2.1019 7.226730672561868 8.198943817596323 18.635977129086626 -5 3 -1
4930 428 15 1.6619 7.222132851271384 8.179356175866854 18.629347074749102 -5 3 -1
4934 428 19 0.12 6.558725380615985 6.325388744574453 18.505348851867886 -5 3 -1
5653 488 18 0.12 5.071713351878416 11.33175524128557 18.031486853439905 4 5 1
8460 38 22 -1.9073 10.134204639715614 12.322075602132529 27.18333149954443 1 0 1
778 38 1 2.0273 10.148701636444944 12.333781618292994 27.1863615637145 1 0 1
4157 364 10 2.1449 9.601313326925883 14.798125734775885 19.09774051126865 2 -1 4
9979 364 28 -2.4449 9.614774351177918 14.806885125202692 19.080168636565524 2 -1 4
4165 364 18 0.12 8.722484809486707 14.626072391656548 18.476343273028153 2 -1 4
3013 268 18 0.12 8.792458159690149 12.040828869777561 22.9909144075483 3 -5 2
3351 296 20 0.26 9.632977483626382 8.711807655999015 21.832774356119568 5 -1 -1