LAMMPS data file via write_data, version 29 Oct 2020, timestep = 30000000

11550 atoms
33 atom types
10890 bonds
28 bond types
11385 angles
25 angle types
13640 dihedrals
28 dihedral types

4.936940174941234 50.06305982507864 xlo xhi
4.936940174941234 50.06305982507864 ylo yhi
4.936940174941234 50.06305982507864 zlo zhi

Masses

1 13.607
2 11.611
3 1.008
4 11.611
5 11.611
6 1.008
7 15.599
8 1.008
9 35.05300000000003
10 11.611
11 11.611
12 11.611
13 15.599
14 15.599
15 15.599
16 1.008
17 1.008
18 1.008
19 1.008
20 1.008
21 1.008
22 0.4000000000000006
23 0.4
24 0.4
25 0.4
26 0.4
27 0.3999999999999965
28 0.4
29 0.4
30 0.4
31 0.4
32 0.4
33 0.4

Bond Coeffs # harmonic

1 382.003 1.448
2 339.986 1.09
3 267.925 1.529
4 320.005 1.41
5 553 0.945
6 267.997 1.529
7 340.01 1.09
8 340.01 1.09
9 340.01 1.09
10 316.993 1.522
11 320.005 1.41
12 340.01 1.09
13 570.005 1.229
14 450 1.364
15 553.011 0.945
16 553.011 0.945
17 500 0
18 500 0
19 500 0
20 500 0
21 500 0
22 500 0
23 500 0
24 500 0
25 500 0
26 500 0
27 500 0
28 500 0

Angle Coeffs # harmonic

1 51.8045 107.2
2 35.0024 109.5
3 32.9947 107.8
4 56.2022 109.5
5 37.5 110.7
6 50 109.5
7 35.0024 109.5
8 54.9952 108.5
9 37.5 110.7
10 37.5 110.7
11 37.5 110.7
12 33.0067 107.8
13 33.0067 107.8
14 33.0067 107.8
15 63.0019 111.1
16 50 109.5
17 37.5 110.7
18 51.6491 110.5
19 34.9904 109.5
20 34.9904 109.5
21 79.9952 120.4
22 70.0048 108
23 79.9952 121
24 34.9904 113
25 54.9952 108.5

Dihedral Coeffs # opls

1 0 0 0.55999 0
2 0.415989 -0.128011 0.695005 0
3 -1.013 -0.709011 0.472992 0
4 -10.5286 -1.29897 0 0
5 0 0 0.3 0
6 0 0 0.467997 0
7 -0.355999 -0.173996 0.491993 0
8 0 0 0.45 0
9 0 0 -0.1 0
10 0 0 0.467997 0
11 0 0 0.3 0
12 0 0 -0.1 0
13 0 0 0.467997 0
14 0 0 0.3 0
15 0 0 -0.1 0
16 0 0 0.467997 0
17 0 0 0.3 0
18 0 0 0 0
19 1 0.546009 0.45 0
20 0 0 0 0
21 9.50801 0 0 0
22 0 0 0 0
23 0 0 0 0
24 -0.355999 -0.173996 0.491993 0
25 -0.355999 -0.173996 0.491993 0
26 0 0 0.352008 0
27 1.5 5.5 0 0
28 0 5.5 0 0

Atoms # full

8781 199 30 -1.7492 9.602878943961645 8.603321572832575 11.296251402282142 1 4 4
2269 199 12 2.1192 9.621528915759493 8.628566779241703 11.276911947163969 1 4 4
5644 480 15 1.6619 6.78266105790108 11.123976702540213 9.373206432779783 1 1 0
2278 199 21 0.24 9.664129385874993 7.508019246757899 13.610155505666079 1 4 4
8784 199 33 -2.1019 10.290644453177952 7.0807227019919905 13.0199406842194 1 4 4
2272 199 15 1.6619 10.280644074139481 7.09789063670891 13.023024178329374 1 4 4
2268 199 11 2.1281 10.78191495267297 8.058804594205673 12.08254115116464 1 4 4
8780 199 29 -2.0081 10.765686740766554 8.066060997313809 12.081520115009436 1 4 4
2276 199 19 0.12 11.11852905398215 8.88331810439854 12.711009657548146 1 4 4
8782 199 31 -1.8561 8.44216201053862 8.708311802434146 11.742239529476699 1 4 4
2270 199 13 1.4661 8.458802948864685 8.712209376218025 11.736453906986572 1 4 4
4751 406 10 2.1449 6.623369896220311 14.412606766196928 13.161448922757957 -1 -4 1
6728 570 19 0.12 12.164097740294247 13.823357984939502 11.176759688354048 -4 -1 2
4761 406 20 0.26 7.628760526968847 10.723517306254013 13.227324499926208 -1 -4 1
6720 570 11 2.1281 11.783624713687145 12.867793873893014 10.815870497757734 -4 -1 2
11006 570 29 -2.0081 11.781789756610054 12.864922196043903 10.823422851717153 -4 -1 2
11007 570 30 -1.7492 10.746462726621916 13.164211389231069 9.849168257838409 -4 -1 2
6721 570 12 2.1192 10.741330818015586 13.181775753550049 9.81790655325705 -4 -1 2
6729 570 20 0.26 10.68923616436635 13.467139403349485 7.904488824173431 -4 -1 2
6723 570 14 1.7919 11.242449981996407 13.51553830371189 8.669093103473289 -4 -1 2
11009 570 32 -2.1019 11.247169209387078 13.505258607752125 8.704805537980045 -4 -1 2
4758 406 17 0.08 6.417946172345108 14.449376698807885 14.231283308988548 -1 -4 1
10021 406 28 -2.4449 6.610064604797547 14.414417071507376 13.158234897534156 -1 -4 1
4757 406 16 0.13 7.6960528772655215 14.293379465215988 13.009029157025028 -1 -4 1
2267 199 10 2.1449 11.833861989389636 7.336484735580406 11.168366235662374 1 4 4
5648 480 19 0.12 5.87011712965907 10.174072351144023 7.89258469430807 1 1 0
2273 199 16 0.13 11.473141775626843 7.233001969244549 10.14501483449029 1 4 4
11535 658 30 -1.7492 11.270078618032485 6.0219347866901325 4.976170479185338 6 2 -2
3448 297 15 1.6619 9.989882305594541 11.687373941477476 5.407601321217033 2 -1 5
2277 199 20 0.26 9.288308613546533 9.837743990490534 9.767883828474313 1 4 4
8783 199 32 -2.1019 9.988554180239738 9.355559226287607 10.243178822957258 1 4 4
2271 199 14 1.7919 9.986847542763291 9.387677468261828 10.217878758581318 1 4 4
2274 199 17 0.08 12.089551787844325 6.341488267923736 11.53263301300353 1 4 4
6724 570 15 1.6619 11.113653073163686 12.378246695106933 11.91380559913378 -4 -1 2
8702 186 29 -2.0081 7.942034892682573 5.637690039962047 9.151439681866341 6 -2 1
8664 179 33 -2.1019 8.921173584795222 11.569200081248164 15.737906219243087 12 -3 -9
2032 179 15 1.6619 8.899927970916695 11.595389881795896 15.749452407840613 12 -3 -9
9372 297 33 -2.1019 9.989215887124585 11.68496141823344 5.437803561169201 2 -1 5
8779 199 28 -2.4449 11.832379213286487 7.322494159641391 11.196201010455573 1 4 4
6730 570 21 0.24 10.231175096324396 12.711590645918104 11.969731994924699 -4 -1 2
4759 406 18 0.12 6.33815453860565 15.320550968749288 12.630055412273867 -1 -4 1
10025 406 32 -2.1019 7.399117974781812 11.498859886556845 12.706120349083166 -1 -4 1
4755 406 14 1.7919 7.43070644398127 11.473122088297698 12.687061859595062 -1 -4 1
4754 406 13 1.4661 5.503805762141615 11.391097249969937 13.980898645686263 -1 -4 1
4753 406 12 2.1192 6.197309639275981 11.903957503278265 13.11748524054846 -1 -4 1
11008 570 31 -1.8561 9.547162810502822 12.975178944858083 10.012046392237972 -4 -1 2
6722 570 13 1.4661 9.539363334999393 12.973989922384947 10.013156035389704 -4 -1 2
11537 658 32 -2.1019 12.080031514230228 7.102549165982941 5.27172967075793 6 2 -2
4242 363 17 0.08 5.662327842956342 16.13563548870311 9.917013137304252 2 -4 1
11010 570 33 -2.1019 11.13506900012321 12.356337836329107 11.942833387488678 -4 -1 2
5640 480 11 2.1281 5.629408074839514 10.528083769587774 8.894988900044794 1 1 0
2120 186 19 0.12 8.7336650128244 5.382147895988672 9.852951722500332 6 -2 1
3110 269 13 1.4661 10.88964957762902 13.815750001014846 16.1477975718443 -3 5 -6
2115 186 14 1.7919 6.63780039751616 6.45262628326243 10.869878347856877 6 -2 1
10470 480 33 -2.1019 6.801464442073972 11.096035098260526 9.394265165776766 1 1 0
8705 186 32 -2.1019 6.634667574878162 6.4263491468718685 10.84266339160192 6 -2 1
2121 186 20 0.26 7.4233258426425195 6.972412584688855 10.94601933809495 6 -2 1
7778 658 13 1.4661 10.27842891340366 5.774365417205646 5.570001693545829 6 2 -2
5650 480 21 0.24 6.895746216538901 11.927107801262114 8.88822029189019 1 1 0
2112 186 11 2.1281 7.949577398546232 5.64627839276137 9.143345433899501 6 -2 1
9654 344 33 -2.1019 7.203642428383414 5.211693726359618 14.427789367195857 1 -4 -7
9202 269 31 -1.8561 10.886369809696529 13.818519196168896 16.136879855798906 -3 5 -6
4012 344 15 1.6619 7.204896205493283 5.182426574813764 14.399114519891175 1 -4 -7
8701 186 28 -2.4449 8.178576810043685 6.936386835979238 8.422725723342692 6 -2 1
10022 406 29 -2.0081 5.915965724080094 13.23926191764621 12.460504074609997 -1 -4 1
2111 186 10 2.1449 8.17710881123502 6.9365917718180645 8.411988137305961 6 -2 1
4760 406 19 0.12 6.209214598236549 13.298588091450494 11.397243113215435 -1 -4 1
4018 344 21 0.24 7.726726894510555 5.184837668935466 13.611268226021446 1 -4 -7
4752 406 11 2.1281 5.918382203621413 13.254436367052056 12.446790504452947 -1 -4 1
10023 406 30 -1.7492 6.154744728126154 11.901744659807276 13.142881786511671 -1 -4 1
10908 553 33 -2.1019 10.986166979148114 15.87817754578413 6.125497916075164 -9 -4 2
3489 300 20 0.26 6.573032365075119 7.730281425561195 15.358837952487947 4 -4 6
2117 186 16 0.13 9.06641969960543 6.769083996169138 7.80440521743625 6 -2 1
9203 269 32 -2.1019 11.891172325524563 11.99561169419693 15.259303968806243 -3 5 -6
3117 269 20 0.26 11.615383665498598 12.1196935263136 14.332743832055069 -3 5 -6
5647 480 18 0.12 4.984500034422496 9.958869316532923 11.002641607636532 1 1 0
3111 269 14 1.7919 11.878352404675848 11.984753752802021 15.230323128498169 -3 5 -6
5645 480 16 0.13 5.8287659805920775 8.746824767798596 10.311164494893475 1 1 0
3109 269 12 2.1192 11.716063362716119 12.928291870449799 16.19987629393338 -3 5 -6
11536 658 31 -1.8561 10.259594599774537 5.763305716598786 5.580714136716873 6 2 -2
10024 406 31 -1.8561 5.487802299337462 11.373035365947162 13.999868253683834 -1 -4 1
10466 480 29 -2.0081 5.634996402082989 10.525383818237035 8.895479421877358 1 1 0
7777 658 12 2.1192 11.307208588083384 6.04583181703462 4.979808288522571 6 2 -2
2118 186 17 0.08 8.265913810303875 7.7678672592371925 9.111414711048257 6 -2 1
3584 308 19 0.12 8.64764951034574 15.8476185984578 15.357516127108534 4 2 1
2113 186 12 2.1192 6.63755539467257 5.637546794726995 9.825623967813602 6 -2 1
2036 179 19 0.12 7.416872025998252 10.258168751065599 15.373425204367095 12 -3 -9
7779 658 14 1.7919 12.10985400350653 7.134470585837903 5.26480639867149 6 2 -2
8703 186 30 -1.7492 6.6386999805506575 5.614706133141603 9.794029598929178 6 -2 1
6725 570 16 0.13 12.326091351245992 10.910233961493201 10.095060891220985 -4 -1 2
3449 297 16 0.13 12.239357811305602 11.213358994038884 5.951151480560695 2 -1 5
3450 297 17 0.08 11.993181013322888 12.942789603841785 6.146711394412546 2 -1 5
3443 297 10 2.1449 12.156292719795099 12.155993291535317 5.410201618803786 2 -1 5
9367 297 28 -2.4449 12.135739925885952 12.16755615431465 5.42761208297723 2 -1 5
5639 480 10 2.1449 5.1377908702593 9.534370035864438 10.010471272726262 1 1 0
6526 553 21 0.24 10.035719086883113 15.760926826171232 6.24392197296241 -9 -4 2
3483 300 14 1.7919 5.639947224091683 7.879466325315678 15.369681232820076 4 -4 6
2776 241 15 1.6619 6.748730137934285 14.495584368688386 5.046841573420155 8 3 -2
9032 241 29 -2.0081 5.692357630565012 15.285531182479854 5.495603866397363 8 3 -2
6520 553 15 1.6619 10.962965285335013 15.888794914276337 6.114018977801267 -9 -4 2
9036 241 33 -2.1019 6.766710179988783 14.492530778180502 5.059178280012626 8 3 -2
10465 480 28 -2.4449 5.141839709190675 9.538951511858864 10.015080625770718 1 1 0
2119 186 18 0.12 7.348844849898002 7.214829208473834 7.760343231288856 6 -2 1
2772 241 11 2.1281 5.700561808737065 15.289216311729646 5.512807852493327 8 3 -2
9389 300 32 -2.1019 5.628910749837667 7.884289896809904 15.405111309706179 4 -4 6
2780 241 19 0.12 4.982083408740677 14.71414243000967 6.096898121613246 8 3 -2
2779 241 18 0.12 7.029047288504962 16.10668211525627 7.019467073207406 8 3 -2
8660 179 29 -2.0081 7.929767946523013 10.708722525080647 16.217436495819804 12 -3 -9
5193 442 20 0.26 9.224601964480119 9.094180244687614 4.990538538184943 -1 0 2
5192 442 19 0.12 6.113358408935951 7.523821913475446 4.974132770203411 -1 0 2
5408 460 19 0.12 13.293746279908959 5.082804255026872 13.576375014824016 2 7 1
2275 199 18 0.12 12.687275151998294 8.006910825295346 11.066799072105947 1 4 4
5410 460 21 0.24 13.798785534296009 5.277923576697943 16.136238438339692 2 7 1
10350 460 33 -2.1019 13.293026846693003 5.7487644333295735 15.473528850574995 2 7 1
1459 131 18 0.12 17.294112945176483 10.198967463319608 5.389500985191611 -4 2 2
5697 484 20 0.26 13.877949787712616 16.172082769787412 14.083993982476208 0 1 -2
10631 507 32 -2.1019 16.133886548341493 15.597323074552298 5.410415841805466 3 1 -2
5406 460 17 0.08 14.591643153014111 6.748949596257712 12.551410491508708 2 7 1
6751 572 18 0.12 19.226642231249457 6.966039890378694 7.075166851747194 2 11 0
11017 572 28 -2.4449 19.106538940055636 6.580764687996459 8.07304544079737 2 11 0
6743 572 10 2.1449 19.118398964315283 6.574306057920398 8.086558150141828 2 11 0
5971 507 18 0.12 19.075949417850243 14.438705992197026 6.939761420166408 3 1 -2
2169 190 20 0.26 19.506186416032268 5.472547445109534 15.532073428419638 -6 7 -12
5407 460 18 0.12 15.214180924050762 7.27908477195712 14.009840448163311 2 7 1
5967 507 14 1.7919 16.114280094960908 15.571811161411961 5.3775319652440166 3 1 -2
2165 190 16 0.13 19.69590108774439 8.714675735840823 13.857056780036983 -6 7 -12
10627 507 28 -2.4449 18.73470232181055 14.453705789257278 5.906645924187799 3 1 -2
4876 416 15 1.6619 14.616728560465589 10.422507123704877 8.421845156824343 -3 -3 0
10086 416 33 -2.1019 14.626631956717612 10.44306882021562 8.431354866646526 -3 -3 0
4882 416 21 0.24 13.695685664812455 10.353595049176944 8.621701461351119 -3 -3 0
6719 570 10 2.1449 12.819073648887585 11.829903799054872 10.410100003131609 -4 -1 2
11005 570 28 -2.4449 12.817413298604611 11.826115893439049 10.425975392231706 -4 -1 2
6727 570 18 0.12 13.39980874909785 12.199121863014195 9.5648104337844 -4 -1 2
10081 416 28 -2.4449 15.490996937376698 8.912057465678814 9.935582068591039 -3 -3 0
4871 416 10 2.1449 15.501644874102944 8.902282891404738 9.941278819227838 -3 -3 0
4878 416 17 0.08 14.770203445307207 9.33194183408888 10.625733887532695 -3 -3 0
6556 556 15 1.6619 17.02575859764736 15.27685270252474 10.465734881642952 -4 1 -6
6558 556 17 0.08 15.816009934207191 13.302221982029355 9.095359689881183 -4 1 -6
5691 484 14 1.7919 14.334500872226748 15.355388082163534 13.951364257686505 0 1 -2
10491 484 30 -1.7492 15.638514854120459 15.64915999834373 14.184387816136855 0 1 -2
5689 484 12 2.1192 15.596352591929755 15.650056503180435 14.181376277468539 0 1 -2
6750 572 17 0.08 18.17839124172683 7.08104822779516 8.304926503170691 2 11 0
5693 484 16 0.13 17.521305359371027 13.023979211995258 14.873534209600312 0 1 -2
5695 484 18 0.12 16.664496534324577 14.065305107593272 15.986143611387853 0 1 -2
10082 416 29 -2.0081 15.142398467831308 9.123707888573787 8.445288514251912 -3 -3 0
4872 416 11 2.1281 15.145905467712987 9.119158755014059 8.463598515224811 -3 -3 0
4880 416 19 0.12 16.08229599648444 8.970468045257252 7.9258673881290145 -3 -3 0
4877 416 16 0.13 15.491196845257 7.834347035767461 10.1591897358367 -3 -3 0
5692 484 15 1.6619 17.707750207182755 15.14604646867847 13.420685958914405 0 1 -2
11018 572 29 -2.0081 19.051803116709085 5.0578910146906 8.301337555868411 2 11 0
6557 556 16 0.13 14.749679016392847 13.93800113704561 10.492718741766978 -4 1 -6
10489 484 28 -2.4449 16.63716986045327 13.633757417552344 14.988389346460803 0 1 -2
5400 460 11 2.1281 13.980697634847402 5.595198500332316 14.249890049852896 2 7 1
4873 416 12 2.1192 14.071907405935894 8.072532408394478 8.092535185051535 -3 -3 0
10083 416 30 -1.7492 14.063442640209562 8.098460540209784 8.110978550495837 -3 -3 0
5698 484 21 0.24 17.576287313932497 16.036700039142328 13.133504245274414 0 1 -2
10084 416 31 -1.8561 12.968329670873656 8.11075379691806 8.645221573654613 -3 -3 0
4874 416 13 1.4661 12.973638719197368 8.117168251929206 8.629880648527797 -3 -3 0
5970 507 17 0.08 17.784771860382097 13.90356073939114 5.86069623929474 3 1 -2
10085 416 32 -2.1019 14.623399712158713 6.892742252132087 7.753070616255233 -3 -3 0
10490 484 29 -2.0081 16.51349637284085 14.525348433557106 13.753736149110459 0 1 -2
4875 416 14 1.7919 14.628094539015358 6.862961709897106 7.744252052391396 -3 -3 0
4881 416 20 0.26 13.98076270448258 6.176581787446766 7.690851320820124 -3 -3 0
6726 570 17 0.08 13.499191874660752 11.6024692360573 11.230960791580351 -4 -1 2
6019 511 18 0.12 18.7842426372001 10.254037716777901 8.816702203036336 4 0 7
6018 511 17 0.08 18.827654652520938 11.998647511632011 9.142017960109992 4 0 7
6016 511 15 1.6619 18.75142948094705 9.46179468114459 11.030089587870918 4 0 7
5963 507 10 2.1449 18.729373123120716 14.445519904571121 5.906350067140242 3 1 -2
10656 511 33 -2.1019 18.754510183376514 9.424962839293942 11.011682002978002 4 0 7
10652 511 29 -2.0081 19.30055527271603 10.739096914108037 10.824113616323904 4 0 7
6012 511 11 2.1281 19.311881499067887 10.75889225132433 10.820799056297986 4 0 7
10653 511 30 -1.7492 18.542470696758258 11.730569225659918 11.634265693201757 4 0 7
6013 511 12 2.1192 18.551934652521478 11.771495214165157 11.645989506702259 4 0 7
6015 511 14 1.7919 18.958435261739123 13.051829061188688 11.57282487873968 4 0 7
10655 511 32 -2.1019 18.957059866675426 13.01291715790762 11.56611244776153 4 0 7
10651 511 28 -2.4449 19.29426683978085 11.023109886851103 9.343434632715358 4 0 7
6021 511 20 0.26 18.36456493624379 13.48968331904009 12.16326624319074 4 0 7
6011 511 10 2.1449 19.30869793294162 11.043887236532724 9.35443541922919 4 0 7
10494 484 33 -2.1019 17.743291375532195 15.120485249239222 13.426068673470416 0 1 -2
10654 511 31 -1.8561 17.384713843496133 11.54768524116405 12.009628853440779 4 0 7
6014 511 13 1.4661 17.39066971793892 11.539515269126754 12.000355275050085 4 0 7
6022 511 21 0.24 18.36291629356574 9.450663854716083 11.891456622685563 4 0 7
5696 484 19 0.12 16.197016164068035 13.951748451648534 12.886066030581825 0 1 -2
5694 484 17 0.08 15.756977632027372 12.963824902156162 15.042982404542112 0 1 -2
5687 484 10 2.1449 16.620536026523435 13.626738229905856 14.98923433062583 0 1 -2
5688 484 11 2.1281 16.50650934811954 14.515261198250968 13.766259715970614 0 1 -2
10493 484 32 -2.1019 14.374056165182262 15.347595881953588 13.958263322877341 0 1 -2
2159 190 10 2.1449 18.606397524637494 8.681834679956975 13.855665424028588 -6 7 -12
8725 190 28 -2.4449 18.61213061575486 8.697297520265938 13.839559347336186 -6 7 -12
10345 460 28 -2.4449 14.269790655342618 6.9725610394019135 13.575143419932255 2 7 1
5399 460 10 2.1449 14.270217362202477 6.9537243027052 13.57260281833305 2 7 1
2166 190 17 0.08 18.151051288942757 9.655516102683656 13.67484516427357 -6 7 -12
10926 556 33 -2.1019 17.04347567252666 15.25812885088227 10.477942357529056 -4 1 -6
2167 190 18 0.12 18.32965981964693 7.97150225169821 13.076616303050132 -6 7 -12
6749 572 16 0.13 19.924526270095594 6.959075240527868 8.711230764418003 2 11 0
5964 507 11 2.1281 18.418828120353684 15.803621308314929 5.249271461525169 3 1 -2
10628 507 29 -2.0081 18.384198548137874 15.823979965750457 5.26263768019193 3 1 -2
2161 190 12 2.1192 19.012836397953038 7.243289500941722 15.810384703476403 -6 7 -12
10921 556 28 -2.4449 15.15765734621589 14.070861275825512 9.500703010452767 -4 1 -6
8727 190 30 -1.7492 19.012996051875188 7.274496896040985 15.810613419664776 -6 7 -12
5969 507 16 0.13 19.454526742293368 13.964370780566863 5.25004757454541 3 1 -2
8729 190 32 -2.1019 18.820149746149706 6.031300027542671 15.1520474169713 -6 7 -12
2163 190 14 1.7919 18.81516931977649 6.003791597913841 15.166977573515785 -6 7 -12
6559 556 18 0.12 14.28043442534769 14.203799594624233 8.845724512313508 -4 1 -6
6551 556 10 2.1449 15.151000667917947 14.07137528638191 9.488106852435413 -4 1 -6
5405 460 16 0.13 13.528125733176513 7.742945912052052 13.452114703232773 2 7 1
2168 190 19 0.12 17.047365001433143 7.851713902094646 15.191137972234948 -6 7 -12
4879 416 18 0.12 16.514367300326196 9.24659739487559 10.150904953350556 -3 -3 0
8726 190 29 -2.0081 18.06286174020585 8.255846071215574 15.22904761102613 -6 7 -12
6744 572 11 2.1281 19.065180108677847 5.058472198593232 8.290746355492615 2 11 0
6560 556 19 0.12 16.247510197955645 15.35536659417916 8.460046687084875 -4 1 -6
6552 556 11 2.1281 15.998138617237338 15.315537090485448 9.520381319134017 -4 1 -6
10346 460 29 -2.0081 13.989889994009507 5.594900572542168 14.248943555068763 2 7 1
2160 190 11 2.1281 18.059024898888072 8.254482677314808 15.24010410621272 -6 7 -12
5404 460 15 1.6619 13.2997204826211 5.727731942971776 15.471687715074774 2 7 1
10922 556 29 -2.0081 16.0114240510535 15.316844906588983 9.53266791472569 -4 1 -6
1532 137 19 0.12 19.696131813963376 15.219055481424153 16.056137423963236 5 -9 1
1457 131 16 0.13 15.745190713725357 10.103540482721122 6.163529041001859 -4 2 2
6562 556 21 0.24 16.527938850869216 15.202254848395548 11.265502766527215 -4 1 -6
1458 131 17 0.08 16.020688160816043 11.528095783914594 5.260923532295844 -4 2 2
1451 131 10 2.1449 16.24375569377021 10.461168432790119 5.262627086919176 -4 2 2
8371 131 28 -2.4449 16.246114448190713 10.47169195973812 5.266503361844861 -4 2 2
8730 190 33 -2.1019 18.06825127578293 9.32447284451923 16.150072449727976 -6 7 -12
2164 190 15 1.6619 18.074255834591995 9.304519637818235 16.16691436185576 -6 7 -12
1527 137 14 1.7919 21.55261983730674 13.267834857008902 14.351241795947953 5 -9 1
2162 190 13 1.4661 20.173644562742982 7.568966504767388 16.053137413710072 -6 7 -12
2431 212 18 0.12 26.241954442006268 12.092237315612095 10.945204044627276 1 -7 -2
4492 384 15 1.6619 25.440401856238026 11.141347415148212 15.969152018737221 1 -7 -1
3138 271 17 0.08 21.835474349732785 5.40708395797257 13.969602880435042 -3 0 -3
2425 212 12 2.1192 27.141060587065013 10.827254110431104 7.701977042311837 1 -7 -2
5134 437 21 0.24 26.8645882942707 7.728484264444456 9.805933457714808 2 2 -3
1533 137 20 0.26 21.997632401670575 12.447246603128152 14.498258125873207 5 -9 1
10964 563 29 -2.0081 22.40118583738131 14.724060885167704 9.925699521886337 2 -2 4
6646 563 21 0.24 21.074195940916468 14.228853469871627 8.72996595150547 2 -2 4
6644 563 19 0.12 23.30279203924739 15.343627793095251 9.897937343268428 2 -2 4
9894 384 33 -2.1019 25.468345709886766 11.173314322346435 15.974668172452729 1 -7 -1
1525 137 12 2.1192 21.214827597953832 13.789385027981794 15.593318055152498 5 -9 1
2434 212 21 0.24 27.170100684818372 13.168517486765062 8.01472559240423 1 -7 -2
8859 212 30 -1.7492 27.12944400305506 10.877242079713357 7.69018869730961 1 -7 -2
6642 563 17 0.08 22.023939375575058 14.854022101452493 12.054661614892963 2 -2 4
8501 152 32 -2.1019 27.03805631091295 13.56362070354624 13.170335708197472 -4 -6 3
5974 507 21 0.24 20.17924919002426 16.20997148526318 5.981866363942346 3 1 -2
8728 190 31 -1.8561 20.17491560486019 7.568047237866223 16.03394361134055 -6 7 -12
5131 437 18 0.12 25.837314493486655 7.2435796487294475 13.278052185181837 2 2 -3
10208 437 29 -2.0081 27.26766423151852 7.208578389494243 11.658550217873502 2 2 -3
2426 212 13 1.4661 26.978667829388566 11.424528733767191 6.637400969877859 1 -7 -2
6636 563 11 2.1281 22.399022840461736 14.735529571902365 9.9369150493062 2 -2 4
8861 212 32 -2.1019 27.35588266256135 9.531851844294494 7.835680380686744 1 -7 -2
6020 511 19 0.12 20.35054442226902 10.903504081598612 11.118067091803796 4 0 7
6017 511 16 0.13 20.295545795778963 11.291233955437281 8.96322325585813 4 0 7
10965 563 30 -1.7492 22.691475256011334 13.31494356844049 10.06690632953832 2 -2 4
5125 437 12 2.1192 27.10905190966819 5.7810975310665285 11.34760945535522 2 2 -3
5124 437 11 2.1281 27.26607825854911 7.201452919225522 11.667669100995314 2 2 -3
2430 212 17 0.08 25.441268085973824 11.138319604120014 9.777750353245018 1 -7 -2
9801 369 30 -1.7492 21.838166444878492 6.251378194833235 5.089596180005004 1 -1 1
6640 563 15 1.6619 21.688908200269726 14.946552564266554 8.736652523173515 2 -2 4
1524 137 11 2.1281 20.717676791190325 15.23229612275033 15.67619841665694 5 -9 1
8409 137 30 -1.7492 21.217738771013263 13.807100791578423 15.609870450407504 5 -9 1
10963 563 28 -2.4449 21.54708152364975 15.252602486608655 11.138306641777678 2 -2 4
10966 563 31 -1.8561 21.879366638635616 12.471157765813345 9.806617518811922 2 -2 4
2427 212 14 1.7919 27.37314362194244 9.478070076659456 7.827091816057447 1 -7 -2
6645 563 20 0.26 23.497074394089804 12.150860015190961 11.431680023346164 2 -2 4
1530 137 17 0.08 20.102429417389672 15.77258724069545 13.707801714390273 5 -9 1
3140 271 19 0.12 22.65385520782937 5.643764639564871 16.00360827719569 -3 0 -3
1707 152 14 1.7919 27.026599604817726 13.572310138562994 13.17693480174161 -4 -6 3
8408 137 29 -2.0081 20.73182277343555 15.232421763062506 15.685605040201619 5 -9 1
10209 437 30 -1.7492 27.09622311645036 5.818771392599933 11.307322012445745 2 2 -3
10211 437 32 -2.1019 27.13993045426284 5.088051864171605 12.494993144364607 2 2 -3
1346 122 13 1.4661 25.74739683004951 15.20236410332589 15.389842778321668 1 -2 10
5126 437 13 1.4661 26.419797481906226 5.389136601957561 10.399938099926148 2 2 -3
3131 271 10 2.1449 22.91673995387213 5.506944759379122 13.874882942314727 -3 0 -3
1844 163 19 0.12 22.12088474229909 8.67365629131903 8.361658523155597 -4 -6 1
9212 271 29 -2.0081 23.519816823482575 5.534470198577772 15.336165565165329 -3 0 -3
6638 563 13 1.4661 21.905803223473907 12.482494479568189 9.812060840762468 2 -2 4
3132 271 11 2.1281 23.50827340956365 5.540515428573868 15.334730739347368 -3 0 -3
10210 437 31 -1.8561 26.411817336433575 5.38363312910769 10.384258861756207 2 2 -3
10307 453 32 -2.1019 24.246674564695176 12.346156445880059 6.492934422759118 -1 6 1
5130 437 17 0.08 26.058032536336377 8.72955096968678 12.507153774542562 2 2 -3
3137 271 16 0.13 23.07890241381784 6.491210461504752 13.43554334251839 -3 0 -3
1845 163 20 0.26 21.393877845034254 8.409303363677619 11.776040551029228 -4 -6 1
8320 122 31 -1.8561 25.728885538094854 15.212744882042951 15.364449188268868 1 -2 10
6643 563 18 0.12 20.521854119029637 14.887151324976323 11.069533944474333 2 -2 4
4498 384 21 0.24 24.992027413198993 11.241048505650458 15.143301549431712 1 -7 -1
5317 453 12 2.1192 23.757130788258095 13.563059339554982 6.532634019662727 -1 6 1
2433 212 20 0.26 27.416841144172835 9.002033744560618 7.011930232880721 1 -7 -2
10305 453 30 -1.7492 23.73880275922753 13.597062712162778 6.523645018730344 -1 6 1
2429 212 16 0.13 26.708028779865323 10.43326507050767 10.570275489042125 1 -7 -2
3142 271 21 0.24 25.135431241528714 6.479566217732163 15.147109310785705 -3 0 -3
5320 453 15 1.6619 21.867799093357036 14.818317583098205 5.9900440138155195 -1 6 1
5325 453 20 0.26 25.111149054758133 12.1104803997574 6.898884981479783 -1 6 1
1841 163 16 0.13 23.937169614736977 7.101453239849688 7.9024531452651425 -4 -6 1
10306 453 31 -1.8561 24.354894771369125 14.624193183119289 6.671080439182318 -1 6 1
9802 369 31 -1.8561 22.093545328401234 6.564240934035283 6.247201675148394 1 -1 1
5123 437 10 2.1449 25.918735648792115 7.672748184272426 12.279414138942087 2 2 -3
5318 453 13 1.4661 24.34939735173525 14.6208039548664 6.671612337775746 -1 6 1
8568 163 33 -2.1019 23.97077947398733 9.55475295853495 8.452398205267794 -4 -6 1
1840 163 15 1.6619 23.950906257908546 9.556853635652228 8.473173642123015 -4 -6 1
1713 152 20 0.26 26.390391774714306 14.195638573377082 13.492719189817013 -4 -6 3
1835 163 10 2.1449 23.557989065263946 7.302748207392979 8.904343404550554 -4 -6 1
1837 163 12 2.1192 22.635513761110744 9.179095426509424 10.444869776300324 -4 -6 1
3136 271 15 1.6619 24.27651626141819 6.731957422704989 15.449734828524095 -3 0 -3
5319 453 14 1.7919 24.274514930840716 12.31039063767591 6.507601900605668 -1 6 1
10207 437 28 -2.4449 25.91420329583485 7.693552403075731 12.264394498781941 2 2 -3
5129 437 16 0.13 25.007083339988213 7.453615092387774 11.723585972347196 2 2 -3
9892 384 31 -1.8561 22.858398231594563 10.909698492041572 15.25910582102984 1 -7 -1
6637 563 12 2.1192 22.723237766680267 13.312198057402552 10.091576896766195 2 -2 4
2423 212 10 2.1449 26.439907941441433 11.394395784642125 10.131612180214532 1 -7 -2
1843 163 18 0.12 24.425827899838048 7.1601074728784155 9.548245558066023 -4 -6 1
1836 163 11 2.1281 22.979629619415302 8.738157453722467 9.029843997338853 -4 -6 1
6639 563 14 1.7919 23.330928829577644 13.075275997272804 11.32745412440378 2 -2 4
4310 369 13 1.4661 22.100536957992652 6.5518651108168795 6.236936244496562 1 -1 1
8565 163 30 -1.7492 22.65871720065088 9.19422584832817 10.449611792732519 -4 -6 1
8860 212 31 -1.8561 26.9689308202221 11.437856300019321 6.614513004819274 1 -7 -2
10967 563 32 -2.1019 23.312549839397473 13.10087249010963 11.307697483318698 2 -2 4
9216 271 33 -2.1019 24.2615949999364 6.760101170030942 15.431926835841928 -3 0 -3
6635 563 10 2.1449 21.55077168326195 15.237595308159063 11.150736125912323 2 -2 4
8563 163 28 -2.4449 23.56499762587086 7.344449400432442 8.90820420632489 -4 -6 1
10968 563 33 -2.1019 21.680100066109922 14.966844486829489 8.728535576866324 2 -2 4
1842 163 17 0.08 22.91337804314942 6.501570566852657 9.265827054847438 -4 -6 1
5324 453 19 0.12 21.738519095577765 12.797266463261554 6.5238255334149615 -1 6 1
9211 271 28 -2.4449 22.91824963334443 5.520850002719388 13.867275227331742 -3 0 -3
8567 163 32 -2.1019 21.751610834930666 8.319649098611041 10.887266355874193 -4 -6 1
8857 212 28 -2.4449 26.442791748026906 11.420092602422272 10.120660494461768 1 -7 -2
10304 453 29 -2.0081 22.327032655180037 13.517685558753518 5.948971806672656 -1 6 1
1839 163 14 1.7919 21.727550089943076 8.315041277726511 10.896951135285438 -4 -6 1
5316 453 11 2.1281 22.331661861315286 13.50800620922114 5.948401237139144 -1 6 1
1846 163 21 0.24 24.78778793114296 9.37255773001439 8.871529568136237 -4 -6 1
5326 453 21 0.24 22.039006994323863 15.147968706272383 6.858976371749038 -1 6 1
4490 384 13 1.4661 22.863339241562134 10.89103278708647 15.279459419143674 1 -7 -1
10308 453 33 -2.1019 21.844691623516695 14.832793065339173 5.94977647360272 -1 6 1
8566 163 31 -1.8561 23.121257291594574 10.129386284122278 11.138745353948774 -4 -6 1
8411 137 32 -2.1019 21.543116344590324 13.290748269674182 14.357874494234107 5 -9 1
8564 163 29 -2.0081 22.967520284899955 8.772186705098392 9.042707931679425 -4 -6 1
1838 163 13 1.4661 23.11515880754087 10.11616186892042 11.125038638563854 -4 -6 1
5127 437 14 1.7919 27.16532486963893 5.043881116462477 12.53036089644873 2 2 -3
1523 137 10 2.1449 20.845181410805864 16.111323138319456 14.430055528072298 5 -9 1
8407 137 28 -2.4449 20.85711242924977 16.123956529978006 14.434847632971119 5 -9 1
4318 369 21 0.24 22.596501057325398 8.481110595429552 5.350051884204587 1 -1 1
4489 384 12 2.1192 23.269993210798223 10.058084242151581 16.142698177397218 1 -7 -1
9891 384 30 -1.7492 23.28946276831681 10.095424549929566 16.12027032458991 1 -7 -1
1353 122 20 0.26 24.406025180247273 13.275475564347474 15.995706157048696 1 -2 10
4309 369 12 2.1192 21.819385205206498 6.221339836396878 5.085764456859396 1 -1 1
4496 384 19 0.12 24.99261435328965 9.026262737153111 16.16860392787038 1 -7 -1